ITEM: TIMESTEP
0
ITEM: NUMBER OF ATOMS
200
ITEM: BOX BOUNDS pp pp pp
-2.5000000000000000e+01 2.5000000000000000e+01
-2.5000000000000000e+01 2.5000000000000000e+01
-2.5000000000000000e+01 2.5000000000000000e+01
ITEM: ATOMS id type x y z ix iy iz
12 1 -1.14097 -0.419294 -1.14097 0 0 0
13 1 -1.17548 -0.390071 -1.17548 0 0 0
14 1 -0.81819 0.523946 -0.81819 0 0 0
85 1 -1.07414 4.62941 -1.07414 0 0 0
84 1 -0.799294 5.59037 -0.799294 0 0 0
7 1 -0.27875 -0.796706 -0.27875 0 0 0
1 1 0 0 0 0 0 0
2 1 -0.13153 -0.0228451 -0.13153 0 0 0
3 1 0.50712 0.477863 0.50712 0 0 0
6 1 -0.0576937 0.0765949 -0.0576937 0 0 0
8 1 0.449963 -0.520619 0.449963 0 0 0
9 1 0.455932 -0.416246 0.455932 0 0 0
10 1 -0.281544 -0.0612401 -0.281544 0 0 0
11 1 -0.284234 -0.255151 -0.284234 0 0 0
15 1 -0.524349 1.32843 -0.524349 0 0 0
16 1 -0.378196 2.03216 -0.378196 0 0 0
98 1 0.543722 2.0556 0.543722 0 0 0
99 1 0.581232 2.14172 0.581232 0 0 0
100 1 0.271452 2.06194 0.271452 0 0 0
101 1 0.0518645 1.80512 0.0518645 0 0 0
109 1 0.588526 0.890011 0.588526 0 0 0
17 1 -0.642449 2.88341 -0.642449 0 0 0
18 1 0.0425718 2.66628 0.0425718 0 0 0
20 1 0.556486 3.33716 0.556486 0 0 0
76 1 0.436532 2.64296 0.436532 0 0 0
77 1 0.304386 3.48978 0.304386 0 0 0
78 1 0.655036 3.1306 0.655036 0 0 0
79 1 -0.239488 3.37235 -0.239488 0 0 0
80 1 0.104174 3.36493 0.104174 0 0 0
89 1 0.377047 3.58951 0.377047 0 0 0
90 1 -0.510933 3.43323 -0.510933 0 0 0
91 1 -0.24036 3.61975 -0.24036 0 0 0
92 1 -0.306584 3.64875 -0.306584 0 0 0
93 1 0.259377 2.92518 0.259377 0 0 0
21 1 0.282458 4.29876 0.282458 0 0 0
22 1 0.570335 4.68324 0.570335 0 0 0
23 1 0.556404 4.67812 0.556404 0 0 0
81 1 0.186955 3.89813 0.186955 0 0 0
82 1 0.494614 4.64275 0.494614 0 0 0
83 1 0.132654 5.22782 0.132654 0 0 0
86 1 -0.438613 3.86463 -0.438613 0 0 0
87 1 -0.0769309 4.25006 -0.0769309 0 0 0
4 1 1.00641 -0.159566 1.00641 0 0 0
5 1 0.918464 -0.13676 0.918464 0 0 0
39 1 1.89328 -0.0564446 1.89328 0 0 0
40 1 1.24238 0.56711 1.24238 0 0 0
106 1 1.06666 0.575636 1.06666 0 0 0
107 1 1.23681 0.113325 1.23681 0 0 0
108 1 1.3203 0.412835 1.3203 0 0 0
30 1 1.7184 2.17467 1.7184 0 0 0
33 1 2.11348 1.41997 2.11348 0 0 0
36 1 1.98696 1.34045 1.98696 0 0 0
38 1 2.13425 0.880557 2.13425 0 0 0
41 1 1.97021 1.16318 1.97021 0 0 0
42 1 1.95254 1.51126 1.95254 0 0 0
43 1 1.46092 1.98261 1.46092 0 0 0
44 1 1.47012 1.73541 1.47012 0 0 0
45 1 1.50751 1.48391 1.50751 0 0 0
47 1 2.26127 1.05256 2.26127 0 0 0
48 1 2.02518 2.02056 2.02518 0 0 0
102 1 0.918952 2.19695 0.918952 0 0 0
103 1 1.45477 1.7993 1.45477 0 0 0
104 1 1.44459 2.10097 1.44459 0 0 0
105 1 1.38275 1.12048 1.38275 0 0 0
110 1 1.16964 0.799494 1.16964 0 0 0
111 1 1.51784 1.68055 1.51784 0 0 0
19 1 0.959035 2.93345 0.959035 0 0 0
26 1 1.52839 3.48111 1.52839 0 0 0
28 1 1.75623 3.49957 1.75623 0 0 0
29 1 1.46855 2.54341 1.46855 0 0 0
31 1 1.96376 2.37337 1.96376 0 0 0
32 1 1.77822 2.31625 1.77822 0 0 0
72 1 2.1966 2.54265 2.1966 0 0 0
73 1 1.91689 2.89025 1.91689 0 0 0
74 1 1.54302 2.57167 1.54302 0 0 0
75 1 1.42554 2.61377 1.42554 0 0 0
94 1 1.08112 2.89109 1.08112 0 0 0
95 1 1.35999 3.6765 1.35999 0 0 0
96 1 1.32849 3.67748 1.32849 0 0 0
97 1 0.981629 2.77214 0.981629 0 0 0
24 1 1.14059 4.82056 1.14059 0 0 0
25 1 1.62259 4.47116 1.62259 0 0 0
27 1 2.14327 4.12993 2.14327 0 0 0
88 1 0.905273 4.43776 0.905273 0 0 0
34 1 2.48145 0.490139 2.48145 0 0 0
146 1 3.57946 0.229601 3.57946 0 0 0
35 1 2.32814 0.91116 2.32814 0 0 0
37 1 2.92629 1.49086 2.92629 0 0 0
46 1 2.45008 1.36233 2.45008 0 0 0
49 1 3.00765 2.18121 3.00765 0 0 0
61 1 3.58316 1.82236 3.58316 0 0 0
65 1 3.49891 2.26372 3.49891 0 0 0
66 1 3.25688 1.42598 3.25688 0 0 0
67 1 3.27632 1.42794 3.27632 0 0 0
68 1 2.91882 2.26436 2.91882 0 0 0
112 1 2.50135 1.83582 2.50135 0 0 0
113 1 2.70866 2.13339 2.70866 0 0 0
114 1 3.41555 1.696 3.41555 0 0 0
115 1 3.63932 0.852243 3.63932 0 0 0
116 1 3.77517 1.83149 3.77517 0 0 0
137 1 3.53696 2.08265 3.53696 0 0 0
143 1 3.49308 1.98062 3.49308 0 0 0
144 1 3.5949 1.33938 3.5949 0 0 0
145 1 2.9475 0.957609 2.9475 0 0 0
147 1 3.3917 1.15852 3.3917 0 0 0
148 1 3.71827 1.28976 3.71827 0 0 0
50 1 2.87519 2.45392 2.87519 0 0 0
51 1 2.69864 3.2986 2.69864 0 0 0
52 1 3.46693 2.94375 3.46693 0 0 0
58 1 2.71459 3.76282 2.71459 0 0 0
59 1 2.43044 3.13886 2.43044 0 0 0
60 1 2.85081 2.48886 2.85081 0 0 0
62 1 3.30507 2.27741 3.30507 0 0 0
63 1 2.73301 3.08524 2.73301 0 0 0
64 1 3.65222 3.1734 3.65222 0 0 0
69 1 3.19484 2.78172 3.19484 0 0 0
70 1 3.69337 3.1106 3.69337 0 0 0
71 1 2.81626 3.26878 2.81626 0 0 0
120 1 3.70657 3.16318 3.70657 0 0 0
121 1 3.74581 3.56761 3.74581 0 0 0
124 1 3.77549 3.11152 3.77549 0 0 0
130 1 3.71273 3.69853 3.71273 0 0 0
136 1 3.6245 2.36651 3.6245 0 0 0
57 1 3.3866 3.87305 3.3866 0 0 0
125 1 3.06428 3.81302 3.06428 0 0 0
126 1 3.78218 4.26404 3.78218 0 0 0
186 1 5.03185 0.499237 5.03185 0 0 0
117 1 4.36009 1.05143 4.36009 0 0 0
118 1 4.62595 1.80685 4.62595 0 0 0
119 1 4.0735 2.24539 4.0735 0 0 0
138 1 4.36292 1.78373 4.36292 0 0 0
139 1 4.68607 1.23399 4.68607 0 0 0
140 1 4.59942 2.12469 4.59942 0 0 0
142 1 4.47067 1.78714 4.47067 0 0 0
149 1 4.50258 1.88558 4.50258 0 0 0
153 1 5.15638 2.01723 5.15638 0 0 0
154 1 4.78045 1.16878 4.78045 0 0 0
155 1 4.71633 1.71008 4.71633 0 0 0
156 1 4.59092 1.80841 4.59092 0 0 0
189 1 5.27768 2.00386 5.27768 0 0 0
193 1 5.08349 1.19339 5.08349 0 0 0
199 1 4.79567 1.58261 4.79567 0 0 0
200 1 4.83453 1.61358 4.83453 0 0 0
53 1 3.8015 3.69639 3.8015 0 0 0
54 1 4.565 3.06031 4.565 0 0 0
55 1 4.70838 3.35617 4.70838 0 0 0
56 1 3.9629 3.33988 3.9629 0 0 0
122 1 3.81707 3.55366 3.81707 0 0 0
123 1 3.92986 3.61338 3.92986 0 0 0
131 1 4.07531 2.81227 4.07531 0 0 0
132 1 4.47626 2.86737 4.47626 0 0 0
133 1 4.92851 3.61043 4.92851 0 0 0
135 1 3.90673 3.07144 3.90673 0 0 0
141 1 4.31988 2.672 4.31988 0 0 0
157 1 4.27383 2.71113 4.27383 0 0 0
158 1 4.74039 2.92162 4.74039 0 0 0
159 1 4.22041 3.31994 4.22041 0 0 0
160 1 4.67771 3.44775 4.67771 0 0 0
161 1 4.6751 3.50809 4.6751 0 0 0
162 1 4.46875 3.70839 4.46875 0 0 0
163 1 4.7317 2.7512 4.7317 0 0 0
197 1 5.27073 2.4442 5.27073 0 0 0
127 1 4.36536 5.04971 4.36536 0 0 0
128 1 4.03278 5.16227 4.03278 0 0 0
129 1 4.29241 4.39307 4.29241 0 0 0
134 1 4.38429 3.9323 4.38429 0 0 0
187 1 5.9446 0.552229 5.9446 0 0 0
150 1 5.49968 1.89135 5.49968 0 0 0
152 1 5.32983 1.77508 5.32983 0 0 0
167 1 5.79673 2.12522 5.79673 0 0 0
168 1 6.67511 2.23086 6.67511 0 0 0
169 1 6.74733 2.21575 6.74733 0 0 0
178 1 6.38504 0.952931 6.38504 0 0 0
180 1 6.68488 1.47134 6.68488 0 0 0
181 1 6.31239 1.46445 6.31239 0 0 0
182 1 6.42599 1.46003 6.42599 0 0 0
183 1 6.03587 1.81766 6.03587 0 0 0
184 1 6.0481 1.85614 6.0481 0 0 0
185 1 5.85689 0.987244 5.85689 0 0 0
188 1 5.51903 1.4177 5.51903 0 0 0
190 1 5.42895 1.95433 5.42895 0 0 0
191 1 5.50039 1.80828 5.50039 0 0 0
192 1 5.79103 1.90006 5.79103 0 0 0
194 1 6.03441 1.02695 6.03441 0 0 0
195 1 6.80213 1.6047 6.80213 0 0 0
196 1 5.94385 1.78028 5.94385 0 0 0
198 1 5.47597 1.47288 5.47597 0 0 0
151 1 5.69676 2.5157 5.69676 0 0 0
164 1 5.70753 2.64873 5.70753 0 0 0
165 1 5.98257 2.48371 5.98257 0 0 0
166 1 5.95846 2.44059 5.95846 0 0 0
171 1 6.57096 2.44016 6.57096 0 0 0
175 1 6.97157 0.652118 6.97157 0 0 0
179 1 7.35631 0.732596 7.35631 0 0 0
172 1 7.0278 1.60733 7.0278 0 0 0
173 1 7.0472 1.4693 7.0472 0 0 0
174 1 7.0038 1.15521 7.0038 0 0 0
176 1 7.36167 1.18165 7.36167 0 0 0
177 1 7.35718 1.17231 7.35718 0 0 0
170 1 6.96188 2.99065 6.96188 0 0 0
ITEM: TIMESTEP
1000
ITEM: NUMBER OF ATOMS
200
ITEM: BOX BOUNDS pp pp pp
-2.5000000000000000e+01 2.5000000000000000e+01
-2.5000000000000000e+01 2.5000000000000000e+01
-2.5000000000000000e+01 2.5000000000000000e+01
ITEM: ATOMS id type x y z ix iy iz
12 1 -5.60851 -2.99131 -3.7956 0 0 0
13 1 -5.54391 -2.44104 -4.725 0 0 0
14 1 -5.63717 -2.65311 -5.89349 0 0 0
85 1 -8.23529 12.1062 -8.61443 0 0 0
84 1 -9.43931 12.0195 -8.16351 0 0 0
7 1 -6.63164 -6.99841 -5.52996 0 0 0
1 1 -9.01269 -5.97164 -11.419 0 0 0
2 1 -8.20003 -6.22227 -10.6786 0 0 0
3 1 -7.75072 -6.66949 -9.83683 0 0 0
6 1 -7.03818 -7.03499 -6.71688 0 0 0
8 1 -6.01549 -6.60667 -4.67852 0 0 0
9 1 -5.67684 -5.84851 -3.96779 0 0 0
10 1 -5.76045 -5.02573 -3.38616 0 0 0
11 1 -5.8577 -3.93562 -3.34546 0 0 0
15 1 -5.27345 -2.64476 -6.88554 0 0 0
16 1 -4.93269 -2.87209 -7.7931 0 0 0
98 1 -5.14601 1.7209 -5.23946 0 0 0
99 1 -4.93875 0.896748 -4.83318 0 0 0
100 1 -4.32696 0.0078326 -4.52926 0 0 0
101 1 -3.54607 -0.366295 -4.08809 0 0 0
109 1 2.25942 3.70716 -2.58153 0 0 0
17 1 -4.36511 -2.91297 -8.72029 0 0 0
18 1 -3.75633 -2.70639 -9.40782 0 0 0
20 1 -1.68141 -1.95717 -9.63965 0 0 0
76 1 -7.74504 12.2716 -2.96223 0 0 0
77 1 -8.61768 12.5701 -3.05614 0 0 0
78 1 -9.58606 12.9105 -3.31871 0 0 0
79 1 -10.4851 13.3464 -3.81468 0 0 0
80 1 -11.0186 13.2329 -4.68854 0 0 0
89 1 -4.89825 10.4897 -8.49742 0 0 0
90 1 -4.8697 9.53478 -8.05531 0 0 0
91 1 -5.30398 8.41924 -8.07333 0 0 0
92 1 -5.51803 7.49137 -7.97572 0 0 0
93 1 -5.26343 6.56632 -7.75703 0 0 0
21 1 -0.886661 -1.32869 -9.37728 0 0 0
22 1 -0.208701 -0.867799 -8.54401 0 0 0
23 1 0.0818538 -0.829099 -7.63426 0 0 0
81 1 -11.0953 12.6603 -5.79736 0 0 0
82 1 -10.8689 12.2748 -6.7331 0 0 0
83 1 -10.3213 11.8893 -7.54309 0 0 0
86 1 -7.3549 11.911 -8.96486 0 0 0
87 1 -6.35973 11.5971 -9.08449 0 0 0
4 1 -7.66151 -7.0549 -8.73034 0 0 0
5 1 -7.38223 -7.00792 -7.71723 0 0 0
39 1 -1.68466 1.31084 5.49726 0 0 0
40 1 -1.45064 2.23373 5.19688 0 0 0
106 1 1.0437 1.03405 -3.17766 0 0 0
107 1 1.59727 1.95673 -3.15285 0 0 0
108 1 2.11887 2.77309 -2.89317 0 0 0
30 1 -3.43213 1.3063 -1.77647 0 0 0
33 1 -4.72381 0.442146 0.979698 0 0 0
36 1 -3.90323 -0.319806 4.03792 0 0 0
38 1 -2.33884 0.540331 5.47862 0 0 0
41 1 -0.994848 3.03346 4.75015 0 0 0
42 1 -0.582721 3.85091 4.30657 0 0 0
43 1 -0.731635 4.5072 3.51548 0 0 0
44 1 -1.05444 5.19099 2.79799 0 0 0
45 1 -1.46332 5.70589 1.9375 0 0 0
47 1 -3.36078 5.12366 1.20161 0 0 0
48 1 -4.33339 4.59284 1.07999 0 0 0
102 1 -2.5462 -0.724358 -3.39097 0 0 0
103 1 -1.47018 -0.759699 -3.18117 0 0 0
104 1 -0.33793 -0.485632 -3.17726 0 0 0
105 1 0.513413 -0.023448 -3.07643 0 0 0
110 1 2.19027 4.59263 -2.0838 0 0 0
111 1 2.35788 5.41015 -1.45968 0 0 0
19 1 -2.62125 -2.29579 -9.74799 0 0 0
26 1 -0.731561 0.171592 -4.84722 0 0 0
28 1 -1.78217 0.900538 -3.15006 0 0 0
29 1 -2.73488 1.23622 -2.58844 0 0 0
31 1 -4.12367 1.19435 -1.0008 0 0 0
32 1 -4.4497 0.82867 -0.0838926 0 0 0
72 1 -4.13144 10.3665 -2.13882 0 0 0
73 1 -5.08652 10.8864 -2.363 0 0 0
74 1 -5.97206 11.2582 -2.43693 0 0 0
75 1 -6.91165 11.6785 -2.74308 0 0 0
94 1 -5.21505 5.47724 -7.36227 0 0 0
95 1 -5.2097 4.51982 -6.87515 0 0 0
96 1 -5.25832 3.47306 -6.39324 0 0 0
97 1 -5.19252 2.5809 -5.70537 0 0 0
24 1 0.0838352 -0.482998 -6.61075 0 0 0
25 1 -0.198058 -0.242652 -5.59559 0 0 0
27 1 -1.32688 0.562752 -4.06476 0 0 0
88 1 -5.36107 11.2716 -8.97885 0 0 0
34 1 -4.82848 0.332111 1.99085 0 0 0
146 1 9.426 4.82912 9.00764 0 0 0
35 1 -4.47489 0.10637 3.03278 0 0 0
37 1 -3.09702 -0.0732901 4.96387 0 0 0
46 1 -2.31001 5.51376 1.3984 0 0 0
49 1 -4.89404 3.90814 1.41375 0 0 0
61 1 -0.182114 6.47764 6.18502 0 0 0
65 1 0.35017 8.46276 2.59852 0 0 0
66 1 0.215937 9.00604 1.84031 0 0 0
67 1 -0.314576 9.56059 1.15628 0 0 0
68 1 -1.07618 9.77696 0.326667 0 0 0
112 1 2.29195 6.1109 -0.800682 0 0 0
113 1 2.35773 6.42046 0.276811 0 0 0
114 1 2.18266 6.24371 1.42114 0 0 0
115 1 2.38095 5.40944 2.06475 0 0 0
116 1 2.6132 4.48932 2.28293 0 0 0
137 1 2.0334 7.74017 7.64796 0 0 0
143 1 6.32214 4.6073 9.70382 0 0 0
144 1 7.2112 4.38311 9.09216 0 0 0
145 1 8.32684 4.44616 8.82297 0 0 0
147 1 10.3943 5.38782 9.24097 0 0 0
148 1 10.7483 6.25612 9.75389 0 0 0
50 1 -5.33056 3.36287 2.06986 0 0 0
51 1 -5.66007 2.86279 2.83594 0 0 0
52 1 -5.90708 2.26772 3.75288 0 0 0
58 1 -1.85966 3.83052 6.94944 0 0 0
59 1 -1.14521 4.50654 6.72205 0 0 0
60 1 -0.533106 5.55282 6.54233 0 0 0
62 1 0.322779 7.11832 5.54898 0 0 0
63 1 0.589246 7.77913 4.54828 0 0 0
64 1 0.530865 7.92126 3.46165 0 0 0
69 1 -1.66202 10.2595 -0.393411 0 0 0
70 1 -2.36 10.3658 -1.10821 0 0 0
71 1 -3.16407 10.2637 -1.74801 0 0 0
120 1 4.68144 0.726242 2.01096 0 0 0
121 1 5.81815 0.441251 1.72188 0 0 0
124 1 8.68478 1.50906 2.27139 0 0 0
130 1 7.69967 6.75203 4.2252 0 0 0
136 1 2.43606 8.21393 6.69837 0 0 0
57 1 -2.57429 3.13066 7.04165 0 0 0
125 1 9.30249 2.40801 2.37632 0 0 0
126 1 9.43722 3.38718 2.7518 0 0 0
186 1 18.0115 -8.50407 16.3191 0 0 0
117 1 2.70284 3.49263 2.37232 0 0 0
118 1 3.01456 2.27876 2.21548 0 0 0
119 1 3.71639 1.32452 2.14032 0 0 0
138 1 2.03011 7.00113 8.48471 0 0 0
139 1 2.57482 6.20559 9.08806 0 0 0
140 1 3.26524 5.58167 9.63575 0 0 0
142 1 5.16517 4.89356 9.93603 0 0 0
149 1 10.81 7.20228 10.1686 0 0 0
153 1 9.21216 8.98197 12.4063 0 0 0
154 1 9.23151 7.8179 12.5632 0 0 0
155 1 9.37139 6.77934 12.6455 0 0 0
156 1 9.95225 5.99839 12.7671 0 0 0
189 1 15.52 -10.3007 17.003 0 0 0
193 1 12.3053 -12.5637 16.2029 0 0 0
199 1 10.5546 -14.1777 10.5064 0 0 0
200 1 10.5684 -14.4198 9.28884 0 0 0
53 1 -5.88854 2.12962 4.8149 0 0 0
54 1 -5.36137 2.20412 5.80698 0 0 0
55 1 -4.5757 2.10496 6.34701 0 0 0
56 1 -3.47374 2.48483 6.71302 0 0 0
122 1 6.98474 0.433532 1.81712 0 0 0
123 1 7.98943 0.741573 2.03338 0 0 0
131 1 6.99422 7.55458 4.2155 0 0 0
132 1 5.81241 8.00381 4.22519 0 0 0
133 1 4.73718 8.36697 4.59189 0 0 0
135 1 3.11412 8.2419 5.72242 0 0 0
141 1 4.2597 5.28513 10.1369 0 0 0
157 1 10.9611 5.64465 12.5574 0 0 0
158 1 11.907 5.11013 12.3411 0 0 0
159 1 13.1001 4.81635 12.3826 0 0 0
160 1 14.1116 4.79907 12.9242 0 0 0
161 1 15.1897 4.91787 13.1909 0 0 0
162 1 16.0103 5.283 13.76 0 0 0
163 1 16.4913 5.84408 14.5374 0 0 0
197 1 10.1835 -13.1917 12.3829 0 0 0
127 1 9.65701 4.27078 3.36843 0 0 0
128 1 9.39191 5.21229 3.65415 0 0 0
129 1 8.56078 6.03662 4.06264 0 0 0
134 1 3.88869 8.3947 5.08785 0 0 0
187 1 17.149 -9.07801 16.6467 0 0 0
150 1 10.6619 8.33115 10.511 0 0 0
152 1 9.67946 9.54276 11.504 0 0 0
167 1 15.9386 6.6643 18.3429 0 0 0
168 1 15.7421 5.92136 19.0673 0 0 0
169 1 15.3016 4.92156 19.4885 0 0 0
178 1 17.9197 -1.47382 15.7293 0 0 0
180 1 19.0537 -3.01714 14.8324 0 0 0
181 1 19.2168 -4.11507 14.5499 0 0 0
182 1 19.6444 -5.148 14.7914 0 0 0
183 1 19.5539 -6.13924 15.0292 0 0 0
184 1 19.1747 -7.18627 15.3357 0 0 0
185 1 18.4977 -7.86365 15.8915 0 0 0
188 1 16.3671 -9.72169 16.7367 0 0 0
190 1 14.8592 -11.0324 16.8475 0 0 0
191 1 13.9653 -11.6565 16.8739 0 0 0
192 1 13.09 -12.2985 16.7831 0 0 0
194 1 11.5112 -12.7904 15.3288 0 0 0
195 1 10.7825 -12.8827 14.454 0 0 0
196 1 10.2503 -12.9476 13.4824 0 0 0
198 1 10.3575 -13.4785 11.358 0 0 0
151 1 10.4929 9.33409 10.787 0 0 0
164 1 16.5555 6.25513 15.5635 0 0 0
165 1 16.4722 6.81361 16.3927 0 0 0
166 1 16.4102 7.07372 17.4381 0 0 0
171 1 14.7235 2.82021 19.8718 0 0 0
175 1 16.3097 -0.32396 18.4184 0 0 0
179 1 18.5638 -2.18454 15.2136 0 0 0
172 1 14.8882 1.87355 20.0845 0 0 0
173 1 15.514 0.999381 19.9287 0 0 0
174 1 15.9504 0.279187 19.2305 0 0 0
176 1 16.6189 -0.728951 17.3365 0 0 0
177 1 17.2982 -1.0271 16.5664 0 0 0
170 1 14.8581 3.83249 19.7889 0 0 0
ITEM: TIMESTEP
2000
ITEM: NUMBER OF ATOMS
200
ITEM: BOX BOUNDS pp pp pp
-2.5000000000000000e+01 2.5000000000000000e+01
-2.5000000000000000e+01 2.5000000000000000e+01
-2.5000000000000000e+01 2.5000000000000000e+01
ITEM: ATOMS id type x y z ix iy iz
1 1 -11.1158 -6.47091 -9.54456 0 0 0
2 1 -10.3322 -6.127 -8.97461 0 0 0
20 1 0.572488 0.0609636 -8.44199 0 0 0
4 1 -9.05895 -6.45959 -7.34091 0 0 0
3 1 -9.55674 -6.01076 -8.24397 0 0 0
17 1 -0.416672 -3.12474 -8.1247 0 0 0
18 1 -0.123644 -2.07034 -8.53595 0 0 0
19 1 0.23385 -0.949373 -8.64208 0 0 0
21 1 0.950072 1.15527 -8.4962 0 0 0
22 1 1.1089 1.94525 -7.9805 0 0 0
91 1 -5.64425 7.56929 -6.85876 0 0 0
90 1 -6.14461 8.6107 -6.69428 0 0 0
89 1 -6.75817 9.53229 -6.60003 0 0 0
85 1 -8.93656 12.9387 -6.78008 0 0 0
84 1 -9.70011 13.7301 -6.36051 0 0 0
86 1 -8.54175 11.9904 -7.09273 0 0 0
87 1 -8.00867 11.1797 -7.09818 0 0 0
88 1 -7.26731 10.3749 -6.96086 0 0 0
5 1 -8.31631 -6.22453 -6.65917 0 0 0
6 1 -7.67814 -6.02451 -5.77377 0 0 0
16 1 -0.758259 -3.96245 -7.5708 0 0 0
23 1 0.983157 2.65866 -7.37222 0 0 0
24 1 0.776251 3.22356 -6.47306 0 0 0
93 1 -4.73858 5.69517 -6.81173 0 0 0
94 1 -4.50137 4.76599 -6.59513 0 0 0
92 1 -5.02042 6.69653 -6.83179 0 0 0
82 1 -10.7251 13.7522 -4.44301 0 0 0
83 1 -10.4824 13.8988 -5.57805 0 0 0
7 1 -6.90182 -6.02878 -4.86732 0 0 0
14 1 -1.56176 -5.25802 -6.0877 0 0 0
15 1 -1.1353 -4.77655 -6.95712 0 0 0
99 1 -6.02421 0.0637395 -4.70034 0 0 0
25 1 0.37529 3.46898 -5.48069 0 0 0
98 1 -6.02489 1.16113 -5.23412 0 0 0
96 1 -4.9288 2.66674 -6.15302 0 0 0
97 1 -5.54213 1.89025 -5.80894 0 0 0
95 1 -4.64832 3.76488 -6.6033 0 0 0
81 1 -10.5052 13.0737 -3.52585 0 0 0
8 1 -6.24096 -6.27486 -4.0237 0 0 0
13 1 -2.00566 -5.67211 -5.08316 0 0 0
100 1 -5.49833 -0.80182 -3.99593 0 0 0
101 1 -4.77007 -1.25056 -3.32138 0 0 0
26 1 -0.121222 3.51093 -4.40331 0 0 0
27 1 -0.400762 3.40642 -3.19999 0 0 0
79 1 -9.6022 11.999 -1.87465 0 0 0
80 1 -10.1374 12.3336 -2.73792 0 0 0
9 1 -5.42803 -6.22585 -3.34385 0 0 0
10 1 -4.39225 -6.20079 -3.28789 0 0 0
11 1 -3.42979 -6.15897 -3.79567 0 0 0
12 1 -2.5548 -6.0191 -4.21196 0 0 0
102 1 -3.76053 -1.00598 -2.81351 0 0 0
103 1 -2.70829 -0.818124 -2.70121 0 0 0
104 1 -1.7364 -0.433338 -3.11004 0 0 0
105 1 -0.916696 0.307096 -3.50119 0 0 0
29 1 -1.79753 3.67786 -1.45046 0 0 0
28 1 -0.924203 3.53315 -2.19687 0 0 0
106 1 -0.302024 1.17416 -3.70948 0 0 0
107 1 0.375788 1.98426 -3.50388 0 0 0
108 1 0.866664 2.76175 -3.21295 0 0 0
73 1 -4.56085 9.44135 0.683233 0 0 0
74 1 -5.61148 9.83596 0.782345 0 0 0
78 1 -9.15403 11.2888 -1.08712 0 0 0
77 1 -8.48056 10.6914 -0.361256 0 0 0
76 1 -7.66512 10.0865 0.0707297 0 0 0
75 1 -6.72749 10.0171 0.716987 0 0 0
30 1 -2.67891 3.79024 -0.84604 0 0 0
109 1 1.30317 3.58794 -2.74805 0 0 0
110 1 1.72134 4.41722 -1.91685 0 0 0
111 1 1.94252 4.93002 -1.05191 0 0 0
72 1 -3.69617 9.12109 0.188644 0 0 0
70 1 -1.73995 8.815 0.0294146 0 0 0
71 1 -2.83433 8.71224 -0.215582 0 0 0
31 1 -3.57867 3.5845 -0.145412 0 0 0
32 1 -4.14315 3.25045 0.982187 0 0 0
112 1 2.03592 5.29998 -0.0715274 0 0 0
113 1 2.37244 4.98964 0.787785 0 0 0
68 1 0.411981 9.10249 0.582057 0 0 0
67 1 1.17125 9.15625 1.40679 0 0 0
69 1 -0.648936 8.99546 0.261517 0 0 0
33 1 -4.36924 2.91871 2.01617 0 0 0
34 1 -4.16659 2.5979 3.08724 0 0 0
122 1 9.32151 0.970258 4.42099 0 0 0
119 1 6.2899 0.496471 2.88926 0 0 0
120 1 7.43377 0.589826 3.41089 0 0 0
121 1 8.3969 0.554743 3.83901 0 0 0
123 1 10.0931 1.76805 4.94419 0 0 0
124 1 10.5764 2.76193 5.04166 0 0 0
50 1 -4.90977 7.04109 3.42276 0 0 0
48 1 -3.15805 7.39301 2.14934 0 0 0
49 1 -4.07908 7.38913 2.61922 0 0 0
47 1 -2.24713 7.16205 1.78607 0 0 0
46 1 -1.03057 7.14581 1.89819 0 0 0
45 1 0.0511931 7.08963 2.31361 0 0 0
115 1 3.64099 3.33005 1.42777 0 0 0
114 1 2.94794 4.1209 1.33524 0 0 0
66 1 1.73874 9.15249 2.38739 0 0 0
35 1 -4.18552 2.43029 4.1544 0 0 0
125 1 11.1023 3.79242 5.16706 0 0 0
51 1 -5.27406 7.00718 4.41397 0 0 0
52 1 -5.67729 6.64797 5.40416 0 0 0
117 1 4.80011 1.66639 2.17479 0 0 0
118 1 5.48655 0.857283 2.4206 0 0 0
126 1 11.1322 4.95338 4.93054 0 0 0
43 1 0.874689 5.9675 4.1127 0 0 0
116 1 4.19554 2.52228 1.96594 0 0 0
127 1 10.7746 6.10454 4.8997 0 0 0
44 1 0.690394 6.67393 3.08784 0 0 0
128 1 10.5408 7.13271 5.14545 0 0 0
129 1 9.86917 8.1125 5.11797 0 0 0
64 1 1.39624 8.36812 4.04832 0 0 0
130 1 9.32713 9.01413 5.2636 0 0 0
131 1 8.30851 9.62361 5.59006 0 0 0
65 1 1.81444 8.80451 3.35563 0 0 0
36 1 -3.76397 2.38994 5.28541 0 0 0
37 1 -3.13048 2.71707 6.17945 0 0 0
53 1 -5.74184 6.17318 6.39994 0 0 0
41 1 0.354793 4.51165 5.82213 0 0 0
42 1 0.744007 5.19097 4.97566 0 0 0
63 1 1.27674 7.82901 4.96711 0 0 0
133 1 6.22415 9.25712 6.45423 0 0 0
132 1 7.24877 9.56744 6.06342 0 0 0
134 1 5.30848 8.64104 7.10147 0 0 0
38 1 -2.21047 3.23473 6.51804 0 0 0
39 1 -1.15522 3.69548 6.64634 0 0 0
40 1 -0.206509 4.01315 6.53321 0 0 0
54 1 -5.2021 5.71944 7.25433 0 0 0
55 1 -4.46373 5.05173 7.73727 0 0 0
56 1 -3.62443 4.48444 8.16488 0 0 0
59 1 -0.516433 5.37529 8.12069 0 0 0
61 1 0.60993 6.82889 6.94023 0 0 0
60 1 0.144533 5.96404 7.74336 0 0 0
62 1 1.07128 7.40178 6.0771 0 0 0
136 1 4.18432 7.12466 8.13357 0 0 0
135 1 4.58249 8.11029 7.67801 0 0 0
57 1 -2.59528 4.48504 8.69411 0 0 0
58 1 -1.4295 4.76218 8.61351 0 0 0
137 1 4.26478 6.23619 8.87387 0 0 0
138 1 4.71075 5.54487 9.69909 0 0 0
200 1 9.79144 -16.3346 9.17668 0 0 0
143 1 9.22424 5.40546 11.2051 0 0 0
142 1 8.45021 4.71238 11.3044 0 0 0
144 1 9.9046 6.1462 10.6147 0 0 0
146 1 10.8212 7.693 9.20671 0 0 0
145 1 10.6225 6.85008 10.0796 0 0 0
139 1 5.43107 4.86265 10.2409 0 0 0
140 1 6.34715 4.51101 10.5778 0 0 0
147 1 10.5414 8.35273 8.54277 0 0 0
199 1 9.89856 -15.5546 9.7793 0 0 0
141 1 7.41701 4.33357 11.0548 0 0 0
148 1 9.86892 9.23163 8.35165 0 0 0
149 1 9.26636 9.95213 8.97096 0 0 0
150 1 8.61768 10.304 9.73638 0 0 0
151 1 7.99482 9.87014 10.6878 0 0 0
197 1 10.4766 -14.3571 11.5545 0 0 0
198 1 10.1985 -14.9085 10.7435 0 0 0
158 1 11.8377 5.49745 14.0398 0 0 0
156 1 9.80854 6.53257 13.9162 0 0 0
157 1 10.7505 5.86908 14.0706 0 0 0
154 1 8.22476 7.93007 13.2641 0 0 0
155 1 8.78161 7.02972 13.8015 0 0 0
153 1 7.66522 8.82377 12.5436 0 0 0
152 1 7.57408 9.50982 11.6331 0 0 0
196 1 10.8186 -13.704 12.4438 0 0 0
195 1 11.3537 -13.3602 13.4423 0 0 0
159 1 12.9457 5.04588 13.783 0 0 0
160 1 14.0943 5.00389 13.9716 0 0 0
161 1 15.2715 5.08184 14.2196 0 0 0
162 1 16.2788 4.94171 14.5377 0 0 0
163 1 17.1601 4.83594 15.094 0 0 0
194 1 12.178 -12.9952 14.0174 0 0 0
193 1 13.136 -12.5153 14.2993 0 0 0
185 1 20.0102 -8.30245 13.9675 0 0 0
184 1 20.0783 -7.30063 14.2404 0 0 0
182 1 20.0665 -5.32779 15.2052 0 0 0
183 1 20.1964 -6.17926 14.5882 0 0 0
181 1 19.8713 -4.45186 15.7223 0 0 0
180 1 19.3487 -3.9356 16.1204 0 0 0
179 1 18.5829 -3.05254 16.4266 0 0 0
178 1 17.885 -2.18736 16.7809 0 0 0
164 1 17.9486 4.56632 15.8464 0 0 0
192 1 14.3217 -12.2679 14.2959 0 0 0
191 1 15.4563 -11.9556 14.0922 0 0 0
190 1 16.5587 -11.8976 13.6595 0 0 0
189 1 17.6282 -11.5781 13.3587 0 0 0
187 1 19.4035 -10.328 13.4969 0 0 0
188 1 18.6595 -11.1058 13.2906 0 0 0
186 1 19.8647 -9.36222 13.6333 0 0 0
177 1 17.1163 -1.65062 17.4483 0 0 0
166 1 18.9421 4.28092 17.786 0 0 0
165 1 18.5077 4.48761 16.7066 0 0 0
176 1 16.4956 -1.22326 18.4914 0 0 0
175 1 16.4709 -0.98185 19.6193 0 0 0
167 1 19.1887 4.21707 18.8712 0 0 0
174 1 16.8549 -0.490205 20.4224 0 0 0
172 1 17.6954 1.03596 21.7142 0 0 0
173 1 17.3614 0.144656 21.1887 0 0 0
171 1 18.3469 1.9623 21.9501 0 0 0
169 1 18.9105 3.67613 20.8591 0 0 0
170 1 18.7133 2.93383 21.6429 0 0 0
168 1 19.1143 4.08693 19.9575 0 0 0
ITEM: TIMESTEP
3000
ITEM: NUMBER OF ATOMS
200
ITEM: BOX BOUNDS pp pp pp
-2.5000000000000000e+01 2.5000000000000000e+01
-2.5000000000000000e+01 2.5000000000000000e+01
-2.5000000000000000e+01 2.5000000000000000e+01
ITEM: ATOMS id type x y z ix iy iz
1 1 -11.9703 -7.19921 -11.5601 0 0 0
2 1 -11.1149 -6.83375 -11.0006 0 0 0
3 1 -10.2642 -6.34409 -10.1914 0 0 0
18 1 1.26445 -2.41415 -8.46969 0 0 0
19 1 1.43704 -1.50412 -8.45398 0 0 0
20 1 1.72457 -0.519713 -8.27253 0 0 0
21 1 1.58719 0.285453 -7.61604 0 0 0
4 1 -9.68994 -5.6711 -9.48571 0 0 0
15 1 -0.905109 -4.38546 -7.06932 0 0 0
16 1 -0.093948 -3.90569 -7.55413 0 0 0
17 1 0.729126 -3.11063 -7.94516 0 0 0
22 1 1.57065 1.30363 -7.0526 0 0 0
23 1 1.45129 2.04143 -6.18309 0 0 0
93 1 -4.28732 6.42554 -7.88012 0 0 0
92 1 -4.39303 7.40292 -7.58491 0 0 0
91 1 -4.73271 8.3289 -7.48822 0 0 0
87 1 -7.67002 11.2252 -7.58148 0 0 0
88 1 -6.77673 10.5378 -7.67031 0 0 0
86 1 -8.61796 11.7954 -7.11131 0 0 0
85 1 -9.4677 12.2598 -6.94196 0 0 0
5 1 -9.52681 -5.12335 -8.58725 0 0 0
6 1 -9.05023 -4.63957 -7.70252 0 0 0
14 1 -1.71893 -4.92373 -6.62406 0 0 0
98 1 -5.14682 1.16774 -7.83584 0 0 0
97 1 -4.96102 2.17657 -7.92141 0 0 0
96 1 -5.0725 3.26371 -8.00065 0 0 0
25 1 -0.153296 2.97065 -4.99209 0 0 0
24 1 0.744696 2.6727 -5.59376 0 0 0
94 1 -4.52353 5.37989 -8.17678 0 0 0
95 1 -4.82993 4.28254 -8.15194 0 0 0
90 1 -5.0379 9.30362 -7.45005 0 0 0
89 1 -5.86179 9.90632 -7.45288 0 0 0
83 1 -11.2864 12.4845 -5.69114 0 0 0
84 1 -10.3912 12.5488 -6.47301 0 0 0
7 1 -8.37524 -4.74938 -6.59129 0 0 0
8 1 -7.70896 -5.14688 -5.87232 0 0 0
12 1 -3.50707 -5.37538 -5.41386 0 0 0
13 1 -2.56835 -5.23467 -5.95011 0 0 0
100 1 -4.93554 -0.317829 -6.703 0 0 0
99 1 -5.26916 0.153895 -7.53227 0 0 0
26 1 -0.784048 3.36833 -4.09205 0 0 0
82 1 -11.3525 12.3276 -4.44526 0 0 0
9 1 -6.86112 -5.20984 -5.34954 0 0 0
10 1 -5.70652 -5.55637 -5.13321 0 0 0
11 1 -4.59097 -5.7244 -5.2263 0 0 0
101 1 -4.34002 -0.429245 -5.71039 0 0 0
102 1 -3.95883 -0.691159 -4.79405 0 0 0
103 1 -3.42448 -0.724219 -3.71151 0 0 0
104 1 -2.77368 -0.312984 -2.90892 0 0 0
105 1 -1.80888 0.100203 -2.40499 0 0 0
106 1 -0.877616 0.139353 -1.74769 0 0 0
107 1 0.19194 0.240536 -1.43919 0 0 0
27 1 -1.17962 3.72617 -3.08409 0 0 0
108 1 1.38099 0.332693 -1.14303 0 0 0
109 1 2.45564 0.762649 -1.19237 0 0 0
80 1 -10.3573 11.888 -2.43591 0 0 0
81 1 -11.0432 12.0252 -3.39936 0 0 0
29 1 -2.64457 3.02337 -1.29331 0 0 0
28 1 -1.89525 3.58973 -2.06929 0 0 0
30 1 -3.2067 2.67802 -0.46597 0 0 0
110 1 3.478 1.17179 -1.34761 0 0 0
111 1 4.47758 1.46301 -1.42577 0 0 0
78 1 -8.36471 11.7933 -1.82499 0 0 0
79 1 -9.45353 11.7341 -2.03465 0 0 0
31 1 -3.87489 2.37616 0.425943 0 0 0
112 1 5.51763 1.40301 -1.1302 0 0 0
74 1 -4.36099 11.0956 -2.3962 0 0 0
73 1 -3.28136 10.5213 -2.21551 0 0 0
72 1 -2.45488 10.1307 -1.67882 0 0 0
71 1 -1.48089 9.77345 -1.32664 0 0 0
70 1 -0.745992 9.56728 -0.632993 0 0 0
68 1 0.752812 9.08964 1.05479 0 0 0
69 1 0.0944324 9.28366 0.243977 0 0 0
77 1 -7.25359 11.7945 -1.72298 0 0 0
76 1 -6.24792 11.6915 -1.91182 0 0 0
75 1 -5.44659 11.3348 -2.35489 0 0 0
117 1 8.74226 0.808971 3.10072 0 0 0
32 1 -4.59466 2.33993 1.1504 0 0 0
33 1 -5.13983 2.53288 2.02509 0 0 0
115 1 7.91885 1.78022 1.11968 0 0 0
116 1 8.26256 1.19037 2.09302 0 0 0
113 1 6.47645 1.51634 -0.39649 0 0 0
114 1 7.30366 1.79322 0.186209 0 0 0
48 1 -3.20635 5.78921 2.64447 0 0 0
47 1 -1.9315 6.038 2.69912 0 0 0
46 1 -1.13007 6.23197 3.34019 0 0 0
45 1 -0.852999 6.4553 4.22798 0 0 0
67 1 1.31871 8.59706 1.95571 0 0 0
119 1 10.2896 0.566115 4.7599 0 0 0
120 1 11.3044 0.998607 4.93977 0 0 0
118 1 9.4106 0.659907 3.92016 0 0 0
34 1 -5.41752 2.8331 3.0263 0 0 0
44 1 -0.368678 6.62758 5.37255 0 0 0
50 1 -5.32377 6.16046 3.03337 0 0 0
49 1 -4.20885 5.91001 2.8173 0 0 0
66 1 1.48987 8.18686 2.97058 0 0 0
65 1 1.55108 8.1398 4.15612 0 0 0
121 1 12.2175 1.58745 5.09881 0 0 0
122 1 13.0823 2.10627 5.23042 0 0 0
123 1 13.5334 3.12408 5.38972 0 0 0
35 1 -5.47864 2.84965 4.1581 0 0 0
36 1 -5.27148 2.64218 5.17794 0 0 0
124 1 13.7741 4.19469 5.25297 0 0 0
42 1 -0.84331 5.71292 7.44004 0 0 0
125 1 13.7398 5.09909 4.46838 0 0 0
126 1 13.3033 6.08225 4.07197 0 0 0
43 1 -0.411975 6.35853 6.51639 0 0 0
127 1 12.8515 6.90041 3.6343 0 0 0
51 1 -6.16968 6.32002 3.72767 0 0 0
64 1 1.22469 8.03066 5.12324 0 0 0
63 1 0.799059 7.78012 6.2633 0 0 0
128 1 12.2395 7.73411 3.31365 0 0 0
129 1 11.2307 8.16522 3.16702 0 0 0
130 1 10.1923 8.43387 3.457 0 0 0
37 1 -4.61402 2.43124 6.02893 0 0 0
38 1 -3.79285 2.85379 6.9457 0 0 0
39 1 -3.1547 3.62805 7.68632 0 0 0
41 1 -1.69232 5.16487 7.86011 0 0 0
40 1 -2.43496 4.41541 8.09242 0 0 0
52 1 -7.0804 6.55889 4.3734 0 0 0
53 1 -7.20944 6.87746 5.35949 0 0 0
62 1 0.294929 7.48417 7.01925 0 0 0
133 1 7.91176 9.87899 5.57569 0 0 0
132 1 8.49907 9.73179 4.52254 0 0 0
131 1 9.21572 8.97318 3.90286 0 0 0
55 1 -6.24306 6.76322 7.32222 0 0 0
56 1 -5.25937 6.67163 8.0215 0 0 0
54 1 -7.00429 6.79819 6.39033 0 0 0
59 1 -2.39443 7.26582 8.6328 0 0 0
61 1 -0.604542 7.36128 7.57924 0 0 0
60 1 -1.53838 7.48084 8.10324 0 0 0
136 1 6.4572 8.62088 8.45256 0 0 0
135 1 7.03046 9.19035 7.53571 0 0 0
134 1 7.45655 9.61954 6.64171 0 0 0
200 1 5.48208 -16.8479 9.64783 0 0 0
199 1 6.47992 -16.2375 10.0252 0 0 0
57 1 -4.35376 6.69338 8.72173 0 0 0
58 1 -3.31228 7.02185 9.11248 0 0 0
137 1 6.24662 7.81762 8.99959 0 0 0
138 1 6.47229 7.0834 9.79361 0 0 0
146 1 12.4915 8.61827 9.70041 0 0 0
147 1 12.3195 9.46442 9.06567 0 0 0
148 1 11.811 10.0624 8.50362 0 0 0
149 1 11.2296 10.9257 8.40565 0 0 0
150 1 10.391 11.4048 8.74128 0 0 0
198 1 7.3938 -15.7118 10.1312 0 0 0
139 1 7.05264 6.49501 10.4553 0 0 0
140 1 7.92353 5.88394 10.8131 0 0 0
141 1 8.92103 5.64272 11.0461 0 0 0
142 1 9.86884 6.01715 11.0508 0 0 0
143 1 10.7173 6.69339 11.1513 0 0 0
144 1 11.5162 7.12364 10.8068 0 0 0
145 1 12.1947 7.90627 10.3031 0 0 0
151 1 9.67051 11.308 9.6985 0 0 0
197 1 8.37361 -15.0675 10.4426 0 0 0
196 1 9.34009 -14.5999 10.8999 0 0 0
153 1 8.96506 10.6444 11.8139 0 0 0
152 1 9.22389 11.1099 10.8544 0 0 0
195 1 10.2587 -14.021 11.0716 0 0 0
194 1 11.1536 -13.2697 11.4217 0 0 0
193 1 12.162 -12.7496 11.8462 0 0 0
192 1 13.0131 -12.2964 12.3649 0 0 0
191 1 13.967 -12.0342 12.7002 0 0 0
190 1 15.0056 -12.0417 12.8941 0 0 0
189 1 16.076 -11.8759 12.9265 0 0 0
188 1 17.1922 -11.4529 13.0178 0 0 0
187 1 18.0065 -10.8325 13.1921 0 0 0
186 1 18.6716 -10.0507 13.6989 0 0 0
185 1 19.1943 -9.5752 14.4223 0 0 0
184 1 19.5116 -9.06705 15.3369 0 0 0
159 1 12.5299 8.62156 15.4996 0 0 0
160 1 13.5611 8.63464 15.5866 0 0 0
161 1 14.6948 8.78423 15.9807 0 0 0
156 1 9.61928 9.37609 14.7402 0 0 0
157 1 10.3898 9.00473 15.2086 0 0 0
158 1 11.4557 8.96785 15.4136 0 0 0
154 1 9.03245 10.4814 12.8936 0 0 0
155 1 9.21087 10.0179 13.8612 0 0 0
182 1 19.5937 -7.6444 16.5547 0 0 0
183 1 19.8709 -8.35928 16.0378 0 0 0
181 1 18.7996 -6.88125 16.8866 0 0 0
162 1 15.7064 8.70629 16.4901 0 0 0
163 1 16.5482 8.54047 16.9632 0 0 0
164 1 17.0377 7.98691 17.5206 0 0 0
180 1 18.0877 -5.84709 16.7937 0 0 0
179 1 17.6201 -4.92194 16.8901 0 0 0
178 1 17.5273 -3.992 17.4496 0 0 0
165 1 17.6151 7.63516 18.4885 0 0 0
177 1 17.2916 -3.18404 18.1589 0 0 0
176 1 17.5826 -2.32618 18.8686 0 0 0
166 1 17.9941 6.89673 19.3234 0 0 0
167 1 18.2516 6.37393 20.2934 0 0 0
175 1 17.8363 -1.29193 19.187 0 0 0
174 1 17.6624 -0.233746 19.835 0 0 0
168 1 18.1949 5.61078 21.0696 0 0 0
173 1 17.5352 0.641957 20.4159 0 0 0
172 1 17.5609 1.49264 20.9876 0 0 0