ITEM: TIMESTEP
0
ITEM: NUMBER OF ATOMS
4000
ITEM: BOX BOUNDS pp pp pp
-9.8233357738561011e-02 3.6198233357738488e+01
-9.8233357738561011e-02 3.6198233357738488e+01
-9.8233357738561011e-02 3.6198233357738488e+01
ITEM: ATOMS id xs ys zs c_csym c_peratom fx fy fz
2 0.0500708 0.0514277 0.00435773 0.820613 -3.487 -0.239287 -1.21138 -1.01349
4 4.51521e-05 0.0457052 0.0527228 0.693065 -3.47967 -0.182437 1.40743 -1.0444
8 0.101591 0.0463342 0.0516996 0.25888 -3.5138 -0.0265903 0.389105 -0.415653
12 0.199943 0.0485727 0.0491537 0.209843 -3.51162 0.357593 -0.256112 0.234226
16 0.299948 0.0496265 0.0484902 0.188038 -3.52398 -0.30859 0.0322832 0.0248378
20 0.394769 0.0491984 0.0487156 0.369771 -3.50975 0.579042 0.15398 -0.187978
19 0.444774 0.00137454 0.0497927 0.675818 -3.49101 0.683525 0.00346879 0.490582
24 0.496818 0.0506976 0.0472927 0.323566 -3.49624 0.275831 -0.292171 0.532353
27 0.649877 0.000354906 0.0446798 0.398244 -3.48445 -0.278175 -0.16863 0.50724
28 0.597149 0.0521992 0.0454544 0.746204 -3.49752 0.0612778 -0.85559 0.365069
32 0.699006 0.0465347 0.0476133 0.39502 -3.50903 0.296278 0.424448 0.142085
36 0.800884 0.0463643 0.0498966 0.579134 -3.50117 -0.12511 0.350295 -0.493612
35 0.850583 6.9444e-05 0.0474306 0.292474 -3.50384 -0.265832 0.0510651 0.140904
40 0.898065 0.0518671 0.0506789 0.339768 -3.4789 -0.472868 -1.0543 -0.346214
1 0.999447 0.000593583 0.00288764 0.364442 -3.50454 0.0411619 0.0172457 -0.535461
38 0.943319 0.0504431 0.002461 1.36151 -3.4848 1.92477 -0.157564 -0.669455
41 0.000171162 0.0987431 0.00058446 0.279781 -3.49698 -0.68388 0.187763 0.0500065
42 0.0523281 0.149814 0.00236243 0.328571 -3.51511 -0.388882 -0.247748 -0.141859
43 0.0487797 0.0981554 0.0487268 0.49547 -3.48726 0.532762 0.503112 0.941455
45 0.100672 0.0994513 0.000757603 0.148867 -3.51901 0.26449 -0.0809304 0.202601
46 0.150929 0.151431 0.000891808 0.268152 -3.51323 0.0301471 -0.742937 -0.146824
47 0.152885 0.0990018 0.0508051 0.148432 -3.50724 -0.330961 0.0151603 -0.578045
48 0.10272 0.151055 0.0509117 0.193687 -3.51524 -0.332125 -0.517262 0.0476228
49 0.202037 0.102361 0.00291087 0.688702 -3.48126 -0.799021 -0.345323 -1.49359
52 0.20414 0.147331 0.0519536 0.714882 -3.49414 -0.78967 0.695505 -0.133741
51 0.248315 0.0986789 0.0504748 0.312677 -3.49687 0.869524 -0.135672 0.322324
50 0.251571 0.151561 0.00144359 0.298547 -3.5144 -0.306479 -0.353855 -0.312372
56 0.300239 0.151537 0.0494755 0.313512 -3.5136 -0.229439 -0.236902 0.638512
54 0.345552 0.147761 0.000136924 0.625621 -3.50486 0.788446 0.552875 -0.148787
55 0.347537 0.0993308 0.0490472 0.0940001 -3.51898 0.18911 0.283055 0.0151874
60 0.397946 0.149815 0.0485052 0.276816 -3.50797 -0.324297 -0.00604818 0.751268
58 0.446419 0.149522 0.00247703 0.527914 -3.49472 0.47723 0.130112 -0.502607
59 0.448044 0.10031 0.0507281 0.248907 -3.51477 -0.325068 -0.30279 -0.167289
64 0.49817 0.14859 0.0457318 0.583073 -3.51392 -0.0827991 0.305504 0.651534
63 0.545412 0.0988627 0.0507005 0.447313 -3.51254 0.189995 -0.2064 -0.625894
67 0.650085 0.0967306 0.0492808 0.357859 -3.5086 -0.165424 0.319312 -0.20275
68 0.595564 0.144968 0.0498937 0.614056 -3.50949 0.608142 0.523521 -0.20043
72 0.697448 0.147514 0.0488146 0.302963 -3.51413 0.52963 0.36007 0.0212519
71 0.750432 0.0962366 0.0481605 0.389389 -3.51061 -0.468582 0.491549 0.326219
73 0.800387 0.098771 0.00278449 0.91462 -3.47893 -0.171816 0.0205715 -1.28557
76 0.796597 0.147151 0.0495012 0.689737 -3.50039 0.851299 0.499972 -0.0704409
75 0.845458 0.0989522 0.0501595 0.613083 -3.49491 0.68139 0.425763 -0.133692
77 0.898252 0.100639 0.00323933 0.616553 -3.49178 -0.233676 0.194738 -1.25102
80 0.899049 0.151484 0.0489069 0.251999 -3.49546 0.100406 -0.476605 0.337495
44 0.997357 0.147988 0.0502271 0.64083 -3.50573 0.939341 0.0978894 -0.02891
78 0.948444 0.153924 0.0014127 0.597022 -3.50168 0.125855 -0.763106 -0.648698
79 0.948084 0.100497 0.0482041 0.250566 -3.48769 0.608355 -0.0470151 0.453867
83 0.0506167 0.200432 0.0482765 0.320338 -3.48772 0.395493 -0.427415 0.280264
84 0.00449088 0.247627 0.0490773 0.54998 -3.49706 -0.782615 0.946149 0.0264821
85 0.102223 0.198729 0.00201766 0.209769 -3.52028 -0.330896 0.189644 -0.287052
87 0.15215 0.199627 0.0480634 0.350769 -3.50354 -0.0682014 -0.0747168 0.682204
86 0.149829 0.248709 0.000456944 0.103846 -3.51907 0.465507 0.0551774 0.00931298
88 0.100175 0.249331 0.0501646 0.157457 -3.52436 0.232012 -0.19126 0.245243
89 0.200547 0.196116 0.000836551 0.393816 -3.50843 0.196648 0.562117 -0.288939
91 0.249355 0.199399 0.0519217 0.139827 -3.52078 0.228049 -0.0135921 -0.0976777
92 0.200524 0.246917 0.0493677 0.215663 -3.51851 -0.0368822 0.438851 0.00291366
96 0.296076 0.249919 0.0528763 0.522589 -3.51372 0.641651 -0.171159 -0.27404
95 0.349316 0.200357 0.0509932 0.175711 -3.51692 -0.170027 -0.0236582 -0.0778352
94 0.350077 0.248191 0.000669509 0.207378 -3.51141 -0.0881422 -0.0446989 -0.09061
100 0.399204 0.247577 0.0518373 0.310851 -3.51798 -0.0838573 0.197876 0.232527
99 0.450754 0.201571 0.0511961 0.767335 -3.5131 -0.279347 -0.491561 -0.0928944
103 0.546941 0.198775 0.0487941 0.133879 -3.5193 0.0805226 0.151 0.0978592
107 0.649145 0.198109 0.0502683 0.117778 -3.51265 -0.211466 -0.276558 0.00909402
106 0.650533 0.245987 0.00284198 0.576827 -3.50792 -0.173444 0.39091 -0.574912
108 0.598957 0.246793 0.0506206 0.143764 -3.52825 -0.059001 0.121933 -0.117508
109 0.701204 0.200551 0.000592438 0.280357 -3.51266 -0.135515 -0.117743 -0.283252
111 0.749022 0.197928 0.0490826 0.324501 -3.50455 -0.0295446 0.369013 0.302897
112 0.695559 0.249532 0.0523719 0.954055 -3.49863 1.02755 -0.187832 -0.252765
113 0.800528 0.198899 0.00215771 0.470149 -3.5106 -0.212863 0.316061 -0.667167
116 0.801156 0.249169 0.0504803 0.167942 -3.50909 0.0459738 -0.457423 -0.203447
115 0.853195 0.197798 0.046403 0.847978 -3.47192 -0.580639 -0.290057 0.844471
120 0.899772 0.249017 0.0505351 0.266233 -3.51739 0.385607 -0.0827178 0.331676
119 0.951311 0.198004 0.0502813 0.393416 -3.50527 -0.371287 0.865358 -0.286526
82 0.0525778 0.25145 0.00049619 0.349025 -3.50339 -0.46974 -0.382728 -0.124885
123 0.0521345 0.302064 0.0523434 0.496326 -3.51564 -0.301793 -0.336602 -0.631694
125 0.101086 0.297986 0.00225582 0.259852 -3.49346 -0.539033 0.581837 -0.378116
127 0.150919 0.297715 0.0511138 0.17997 -3.51974 -0.0156879 0.180676 0.232281
129 0.203007 0.299005 0.0019445 0.426163 -3.51345 -0.583312 -0.193929 -0.451561
131 0.248871 0.298344 0.051364 0.10633 -3.5163 0.303919 0.0197017 0.0403564
133 0.300702 0.299357 0.00256459 0.185025 -3.52798 -0.222732 -0.0193294 -0.25221
135 0.34923 0.298868 0.0498756 0.293062 -3.51546 -0.0916246 -0.256009 0.339423
137 0.396626 0.302053 0.00168537 0.37379 -3.51262 0.30546 -0.477195 -0.31282
98 0.445369 0.250845 0.00116278 0.284771 -3.5195 0.128297 -0.362822 -0.182235
139 0.445859 0.298878 0.0519121 0.377697 -3.49821 0.0539408 0.285628 0.087005
104 0.496595 0.254217 0.0505664 1.0564 -3.47712 0.0887143 -1.32894 -0.242251
141 0.495381 0.298503 2.48847e-05 0.481978 -3.50804 0.385814 0.704247 0.100642
102 0.546789 0.250697 0.000929623 0.223714 -3.49956 0.322285 -0.524178 0.165599
143 0.545986 0.298887 0.0476086 0.531286 -3.50619 0.71868 0.335849 0.494699
145 0.598898 0.294799 0.000844443 0.772458 -3.4933 0.083023 1.12031 0.407688
147 0.649622 0.298678 0.0503283 0.219947 -3.50706 -0.386029 0.166443 0.198045
149 0.697585 0.301155 0.00207871 0.50347 -3.49867 0.656638 -0.312691 -0.343609
151 0.751846 0.295274 0.0518064 0.767055 -3.50211 -0.359048 0.840939 -0.20189
153 0.802668 0.298436 0.00300135 0.416606 -3.51881 -0.226046 0.553014 -0.364418
114 0.850274 0.251235 0.00220345 0.444411 -3.49684 0.255204 -0.588353 -1.07892
155 0.854606 0.298692 0.0506186 0.67834 -3.49775 -0.77864 0.4898 0.153316
118 0.950799 0.250676 0.00345381 0.795757 -3.50949 0.232316 -0.309995 -0.381065
159 0.951976 0.299444 0.0477801 0.396398 -3.48048 -0.0197953 0.0637461 0.818219
124 0.000382449 0.349167 0.0522878 0.436396 -3.51267 -0.0356753 -0.127451 -0.256708
163 0.0521274 0.398989 0.0496897 0.189804 -3.52972 -0.139228 0.0233217 0.176034
126 0.149039 0.348517 0.00086448 0.19459 -3.51879 0.621483 0.137704 -0.145682
128 0.101135 0.349131 0.047202 0.655133 -3.50437 0.0828542 0.163158 0.743734
165 0.102173 0.399358 0.00107817 0.221535 -3.51553 -0.216645 0.047187 0.0440555
167 0.153041 0.3974 0.0527601 0.559077 -3.51928 -0.215502 0.397539 -0.455006
132 0.199752 0.346067 0.0513022 0.362955 -3.48555 -0.430762 0.900266 0.406567
169 0.200869 0.398112 0.0011248 0.217841 -3.5124 0.0593424 0.30939 0.11259
171 0.248162 0.39806 0.0542504 0.519095 -3.5022 0.247111 0.619912 -1.16072
130 0.250419 0.348202 0.00066862 0.118636 -3.52781 0.145049 0.390933 0.215105
136 0.299622 0.349862 0.0510965 0.143715 -3.52227 -0.377065 -0.0721242 0.299877
134 0.347836 0.350637 0.00321681 0.381824 -3.51164 0.395421 -0.0174722 -0.548141
140 0.399594 0.350772 0.0490291 0.203582 -3.50604 0.33735 -0.0164851 -0.125405
175 0.348029 0.400905 0.0499906 0.286021 -3.50983 0.247987 0.0059798 -0.174605
179 0.450568 0.399194 0.0496974 0.190392 -3.52847 -0.287548 0.351041 0.165664
144 0.498844 0.350603 0.0481904 0.1707 -3.51453 0.0459919 -0.14315 0.370498
142 0.550855 0.349962 0.0016662 0.323188 -3.51481 -0.293834 -0.344421 -0.39804
181 0.500064 0.403937 0.000359211 0.426185 -3.51659 0.0132117 -0.390345 0.137212
183 0.549307 0.400747 0.0479229 0.179997 -3.52068 -0.3358 -0.0277323 0.264537
146 0.647563 0.351224 0.000714174 0.369305 -3.48911 -0.210441 -0.596025 0.212707
148 0.597401 0.351033 0.0505835 0.378917 -3.5002 0.3259 -0.770215 -0.195633
187 0.649155 0.398404 0.0479299 0.146748 -3.51149 0.0184044 0.413599 0.536199
152 0.701248 0.348001 0.0474386 0.497746 -3.49934 -0.0970777 0.180988 1.01628
189 0.698394 0.396848 0.00146981 0.497163 -3.51303 0.149052 0.38599 -0.479245
191 0.749371 0.400325 0.0497529 0.191201 -3.51906 0.0979195 -0.263722 0.233883
150 0.751616 0.350861 0.000356537 0.40519 -3.49456 -0.480842 -0.838866 0.180711
156 0.798163 0.350742 0.0498021 0.661074 -3.49569 0.719309 -0.563782 0.307543
193 0.800142 0.397796 0.00152255 0.282873 -3.50222 0.540167 0.505907 -0.190935
160 0.901286 0.349122 0.0504567 0.120755 -3.49285 0.220391 -0.740986 -0.278761
195 0.853663 0.396882 0.0521412 0.767939 -3.49274 -0.780009 0.725732 -0.396464
197 0.900781 0.398966 0.00128406 0.128963 -3.49486 -0.252408 0.197265 0.0570257
158 0.955029 0.351642 0.000644653 0.77259 -3.5031 -1.29291 -1.14751 -0.03613
199 0.946807 0.397128 0.050564 0.846661 -3.49495 1.54286 0.577643 0.00219661
162 0.0506111 0.449604 0.0023529 0.101687 -3.52345 -0.302696 0.116571 -0.216803
203 0.0473495 0.498401 0.0499196 0.245481 -3.51079 0.124701 0.212838 0.00648115
168 0.101179 0.447975 0.0497852 0.20101 -3.52389 -0.0228893 0.00169092 0.275321
172 0.199733 0.451618 0.0496054 0.476036 -3.5228 -0.0729826 -0.288998 0.112143
170 0.252958 0.450008 0.00308219 0.696049 -3.49544 -0.624449 -0.928615 -0.503639
176 0.302278 0.451306 0.0521117 0.42726 -3.48906 -0.609901 -0.403301 -0.285775
211 0.25146 0.496282 0.0506548 0.485111 -3.50107 -0.587669 0.574594 0.38803
213 0.297285 0.499805 0.000386289 0.517414 -3.49017 0.906794 0.104707 -0.656421
180 0.397373 0.449285 0.0539182 1.11536 -3.48181 0.541101 0.196659 -1.29651
184 0.498344 0.450548 0.0526217 0.493138 -3.51397 0.0258226 0.160041 -0.538327
223 0.551764 0.499546 0.047468 0.402419 -3.52217 -0.146673 0.0427103 0.559891
188 0.599021 0.448872 0.0489501 0.222469 -3.51492 0.414819 0.300892 0.109328
227 0.655365 0.498955 0.0520912 1.11097 -3.49294 -0.930585 -0.182582 -0.90617
192 0.70164 0.448296 0.0496046 0.283293 -3.51164 -0.444896 0.123693 -0.0265245
196 0.80161 0.450228 0.0498524 0.235052 -3.50287 -0.535227 -0.319625 0.357073
194 0.847442 0.450813 0.000449919 0.512875 -3.47787 0.727827 -0.882211 0.286138
200 0.903044 0.449727 0.0542921 0.920256 -3.48604 -1.2705 -0.38491 -0.788229
235 0.848807 0.499392 0.0499349 0.309596 -3.50855 0.615115 0.146059 0.391556
237 0.898892 0.498559 0.00286983 0.207072 -3.51823 -0.0576883 0.232119 -0.109099
164 0.999568 0.449435 0.0523333 0.256446 -3.50024 -0.239403 -0.480499 -0.601536
198 0.949279 0.447224 0.00449959 0.430931 -3.52126 0.172735 0.416085 -0.33478
201 0.998044 0.499395 0.00347753 0.35501 -3.51191 0.4155 -0.25514 -0.387239
204 4.14457e-05 0.552572 0.0511892 0.419522 -3.45556 -0.969251 0.636717 -0.296925
205 0.0990384 0.500609 0.00414649 0.78447 -3.4951 -0.0398237 0.077834 -0.849813
207 0.147109 0.500175 0.0491061 0.359121 -3.49817 0.573544 0.0479325 0.0932452
208 0.095726 0.549527 0.0535136 0.886352 -3.48919 0.949846 0.751133 -1.35191
212 0.198572 0.545751 0.049896 0.527888 -3.49915 0.16711 0.257709 -0.371849
210 0.252416 0.549922 0.00133794 0.48442 -3.4929 -0.886446 -0.167594 -0.614508
216 0.297797 0.547053 0.0483242 0.542052 -3.49723 0.760322 0.287922 0.675411
215 0.349664 0.501254 0.0511865 0.178896 -3.52611 -0.0594239 0.0607773 -0.189543
220 0.398622 0.551203 0.0506431 0.199775 -3.50997 -0.0826329 -0.496172 -0.13727
218 0.450377 0.550247 0.000256347 0.165423 -3.52593 -0.255448 -0.111318 0.122215
219 0.446926 0.500019 0.0484908 0.637451 -3.50864 0.658366 0.122841 0.284132
224 0.499152 0.547805 0.0508063 0.241608 -3.52788 0.116703 0.240419 0.0332873
221 0.500713 0.500705 0.00113059 0.194669 -3.51497 -0.430785 -0.442489 -0.279712
222 0.548327 0.549998 0.000130451 0.329118 -3.52179 0.559132 0.120258 0.0276863
226 0.653822 0.551565 0.00304755 0.559044 -3.4935 -0.773499 -0.351806 -0.62147
228 0.601476 0.546824 0.049322 0.495715 -3.51104 0.0718649 0.601826 -0.0204811
232 0.696306 0.552156 0.0520173 0.851595 -3.48967 0.745811 -0.506359 0.104092
230 0.748278 0.550107 0.00331741 0.599189 -3.4903 0.322064 -0.107752 -0.439415
231 0.748466 0.50123 0.0502902 0.359752 -3.49346 0.202028 -0.54466 -0.190977
236 0.80453 0.550068 0.0483726 1.10314 -3.50244 -0.851411 0.0361267 0.231633
234 0.849516 0.549609 0.000299901 0.207954 -3.48028 0.319983 0.298185 0.27746
240 0.89982 0.55138 0.053574 0.532893 -3.50475 -0.25557 0.208629 -0.413726
239 0.947006 0.5013 0.0489952 0.661491 -3.51732 0.430572 0.0204526 0.488048
243 0.0495071 0.599922 0.049013 0.273995 -3.52039 -0.377417 0.43706 0.120068
247 0.149779 0.599245 0.0499856 0.202366 -3.50547 -0.153244 -0.240447 -0.368759
248 0.100825 0.648076 0.0479924 0.341808 -3.51129 -0.265185 0.586609 -0.0393624
252 0.199251 0.647781 0.0504607 0.333414 -3.51466 0.00942507 0.113471 -0.322038
251 0.252517 0.596555 0.0515706 0.736798 -3.49737 -0.507324 0.576782 -0.355005
256 0.302925 0.652073 0.0454405 0.779623 -3.49827 -0.691938 -0.735927 0.00419687
255 0.348359 0.598287 0.0487652 0.325566 -3.5078 0.2023 0.17904 0.190508
257 0.39798 0.601086 0.00138571 0.420575 -3.52313 0.307716 -0.0404692 -0.138274
260 0.40014 0.650288 0.0516293 0.268808 -3.52148 0.0853026 -0.0511136 -0.326871
259 0.447675 0.596509 0.0499033 0.523312 -3.50763 0.571905 0.493633 -0.14482
261 0.499466 0.600114 0.000897816 0.218787 -3.51154 0.469594 -0.0599782 0.311343
264 0.498893 0.647416 0.0478477 0.444216 -3.51512 0.0545552 0.40495 0.276871
262 0.552275 0.65187 0.00265159 0.477371 -3.45835 -0.463913 -0.76797 -0.275661
263 0.549279 0.598457 0.0508407 0.234645 -3.50765 0.0411767 -0.206316 -0.467477
265 0.602453 0.599836 0.000770824 0.352963 -3.51576 -0.417567 -0.0711024 -0.0845358
266 0.650462 0.65092 0.000961929 0.229528 -3.49988 -0.46066 0.306697 -0.432558
267 0.651081 0.601552 0.0505877 0.274304 -3.50837 -0.597629 0.114688 0.177047
268 0.59502 0.64794 0.0513306 1.24069 -3.47667 1.6241 0.580043 -0.0835242
269 0.699294 0.603982 0.00109397 0.499422 -3.51961 0.232321 -0.424886 -0.12359
272 0.696923 0.654633 0.049725 0.913464 -3.47592 1.33844 -0.941701 -0.345825
271 0.749926 0.599065 0.0470231 0.525026 -3.47675 -0.468831 1.1038 0.459328
276 0.800453 0.65368 0.0509 0.807482 -3.50064 0.004758 -0.454772 -1.04829
275 0.8465 0.603548 0.0455972 1.36044 -3.50142 0.908987 -0.402568 1.01476
277 0.899752 0.600274 0.00398059 0.584632 -3.51845 0.116388 -0.17442 -0.365904
280 0.899736 0.651457 0.0502294 0.291747 -3.51671 -0.0923566 -0.418231 0.0546216
244 0.998641 0.649996 0.0508258 0.229207 -3.52359 0.44599 -0.110113 -0.232
278 0.950318 0.646343 0.00163053 0.468577 -3.5215 -0.0329274 0.215865 -0.188541
279 0.95135 0.600683 0.0526847 0.314355 -3.50136 -0.168983 -0.321961 -0.218909
283 0.0473522 0.70203 0.0490177 0.446985 -3.5038 0.668604 -0.551266 -0.0247337
282 0.0533864 0.749398 0.000315458 0.438035 -3.49507 -0.875834 -0.117926 -0.0552778
287 0.151081 0.697697 0.0476614 0.310677 -3.51839 -0.0457897 0.288178 0.464082
289 0.201488 0.699854 0.000257095 0.322839 -3.52042 -0.485043 -0.312551 -0.223456
292 0.204024 0.748877 0.05034 0.413175 -3.51364 -0.414297 0.279552 -0.288985
291 0.251566 0.698306 0.0458101 0.399314 -3.50673 -0.0341794 0.0254668 0.810889
295 0.348851 0.698208 0.0497942 0.357504 -3.48124 0.778483 0.661763 -0.512277
297 0.401894 0.701738 0.000593602 0.259403 -3.52436 -0.0201623 -0.343923 -0.208546
294 0.349249 0.747273 0.000336098 0.352965 -3.51651 0.250307 0.421248 0.00796447
300 0.401337 0.748561 0.0515559 0.268557 -3.51357 -0.0418787 0.370304 -0.358037
299 0.45219 0.701115 0.0491761 0.257273 -3.52181 -0.218482 -0.367512 -0.0574947
301 0.502565 0.701916 0.000799843 0.251071 -3.49929 -0.679353 -0.146125 0.249773
303 0.551057 0.699207 0.0522175 0.358638 -3.50755 -0.522538 0.419938 0.0336541
302 0.550171 0.74865 0.00243926 0.586996 -3.5144 0.104075 0.750802 -0.0571613
305 0.601014 0.702772 0.000262477 0.302616 -3.50219 0.0378237 -0.776531 0.156652
307 0.649106 0.699794 0.049871 0.227843 -3.49712 -0.506683 0.189596 -0.264446
311 0.749776 0.70065 0.0439961 0.910095 -3.50333 -0.24183 0.315205 1.37728
312 0.697052 0.746779 0.0500083 0.554453 -3.50692 0.351333 0.606103 -0.334812
315 0.850745 0.698364 0.0473332 0.40335 -3.51319 -0.294836 0.391851 -0.00113427
281 0.996607 0.701253 0.00135472 0.51797 -3.49128 0.905326 -0.0492491 -0.481841
319 0.950322 0.698372 0.0466869 0.632869 -3.49234 -0.318601 0.493338 0.501205
284 0.000327648 0.751434 0.0534079 0.804842 -3.48901 -0.282689 -0.118222 -1.09431
323 0.0511661 0.801307 0.050107 0.34502 -3.51681 0.0708918 -0.494689 -0.371296
288 0.100284 0.750296 0.0507044 0.188446 -3.5144 0.0855213 -0.130347 -0.0830669
327 0.153207 0.801708 0.0475134 0.729735 -3.49479 -0.399514 -1.00292 0.602313
296 0.298951 0.75041 0.0473256 0.350335 -3.51486 0.303603 -0.320349 0.569982
331 0.253357 0.800507 0.0492401 0.395939 -3.49878 -0.7755 -0.448663 0.194546
333 0.299291 0.800074 0.00111469 0.29131 -3.4995 0.413719 -0.362493 -0.336886
335 0.352083 0.797873 0.0493605 0.423159 -3.52712 -0.39573 -0.043727 0.033812
298 0.450858 0.752333 0.00264784 0.476462 -3.50102 -0.12566 -0.349469 -0.977048
339 0.453253 0.800788 0.0490478 0.347616 -3.47931 -0.6535 0.357017 0.0999033
304 0.497793 0.753511 0.0507273 0.710382 -3.48532 1.2602 -0.690324 0.170811
343 0.550866 0.803605 0.0493557 0.345195 -3.51485 -0.15004 -0.276989 -0.0968913
308 0.598449 0.751234 0.0515724 0.242686 -3.50208 0.136382 -0.396604 -0.333276
347 0.646294 0.799885 0.0484881 0.262442 -3.51444 0.675095 0.0692017 0.0394228
351 0.749905 0.800654 0.0469287 0.273335 -3.50379 -0.408828 -0.271182 0.193666
316 0.798863 0.752038 0.0481157 0.26723 -3.50791 -0.0257045 -0.141039 -0.0914686
320 0.896186 0.750555 0.050135 0.46043 -3.50864 0.420138 -0.264069 -0.223506
355 0.847243 0.800267 0.0474217 0.226913 -3.5167 0.570517 -0.169477 0.0375096
321 0.999032 0.797212 0.000188377 0.404509 -3.50854 0.145623 0.257253 0.255408
318 0.94808 0.751825 0.000232364 0.445969 -3.51007 0.290079 -0.516886 0.22118
359 0.943061 0.80072 0.0483795 1.13258 -3.49344 0.997963 0.00689529 0.503567
322 0.0488547 0.849387 0.00149197 0.293247 -3.51153 0.174423 -0.0373878 0.0327156
324 0.000431888 0.84879 0.0523935 0.737516 -3.48271 -0.572536 0.286938 -0.864528
363 0.0499962 0.902614 0.0494987 0.650306 -3.51176 -0.0256351 -0.501927 -0.0890826
328 0.102631 0.847771 0.0519892 0.431658 -3.50654 -0.225232 0.361713 -0.70453
365 0.101946 0.897347 0.00131399 0.252965 -3.51405 -0.277666 0.0776361 0.303145
367 0.150061 0.900324 0.053117 0.534124 -3.5082 0.423907 -0.655128 -0.4142
332 0.202161 0.848562 0.0494563 0.198691 -3.49849 -0.0291038 0.25341 0.0555656
371 0.249541 0.902166 0.0523833 0.639664 -3.50774 0.516041 -0.777834 -0.471808
330 0.254007 0.850244 0.0028203 0.608348 -3.505 -0.579227 0.0911298 -0.304745
336 0.301797 0.849044 0.0525039 0.395621 -3.48074 -0.239574 0.548668 -0.351354
334 0.345461 0.847912 0.000315416 0.944031 -3.51228 0.779595 0.266798 -0.242499
340 0.398937 0.847983 0.048748 0.200676 -3.51367 0.502253 0.129526 -0.0982106
375 0.351929 0.898474 0.0483477 0.334879 -3.51738 -0.284004 0.428156 0.0925272
377 0.400663 0.898377 0.00136501 0.339212 -3.51197 -0.029122 -0.108289 -0.41273
379 0.448361 0.898526 0.0513915 0.619702 -3.52104 0.120841 -0.0986155 -0.258048
344 0.502375 0.854064 0.0512929 0.643295 -3.5063 0.250409 -0.769925 -0.735469
383 0.552494 0.905336 0.0480133 0.722327 -3.51089 -0.509546 -0.277172 0.033788
348 0.600583 0.855315 0.0496638 0.72797 -3.51185 -0.498347 -0.810271 0.0560592
387 0.649715 0.899627 0.0509195 0.346332 -3.51058 -0.0127698 0.396813 -0.505588
352 0.697002 0.851809 0.047615 0.262767 -3.50205 0.199302 -0.5115 0.247866
391 0.746281 0.902841 0.0474118 0.546051 -3.49964 0.550128 -0.679878 0.328496
356 0.799512 0.847921 0.0478968 0.354082 -3.50658 -0.274611 0.878307 -0.0398299
360 0.898148 0.852068 0.0460266 0.418601 -3.51285 0.166489 -0.0629207 0.411479
395 0.848907 0.900585 0.0497299 0.189284 -3.51955 -0.0191219 -0.130973 -0.026381
399 0.949028 0.90129 0.0468089 0.460811 -3.50462 0.082147 -0.788515 0.202222
3 0.0509331 0.996607 0.049002 0.389529 -3.4957 0.289901 0.0839328 0.177455
364 0.000569455 0.951534 0.0516534 0.607934 -3.50445 -0.116417 -0.643546 -0.494948
5 0.102386 0.996746 0.00112052 0.331247 -3.50305 -0.357749 0.525876 -0.180627
7 0.151756 0.998019 0.0516648 0.165487 -3.51813 0.144365 -0.0367637 -0.255794
366 0.149781 0.947055 0.00323316 0.343934 -3.51835 0.458497 0.147702 -0.547016
368 0.101156 0.951177 0.0486484 0.643041 -3.49096 -0.510945 -0.531155 0.634672
11 0.24762 0.999819 0.0483058 0.438372 -3.48187 0.579414 -0.0206838 0.758494
372 0.20256 0.948426 0.0489297 0.501737 -3.50086 -0.33493 0.316808 0.673889
13 0.298329 0.99924 0.000808924 0.377149 -3.49046 0.261216 0.402467 -0.260161
370 0.25121 0.952315 0.000371152 0.537899 -3.50439 -0.148688 -1.25273 -0.0511082
376 0.300929 0.947277 0.0477829 0.434823 -3.50042 0.0271517 0.427944 0.56642
15 0.347835 0.999114 0.0457661 0.472453 -3.51443 0.250959 -0.0230335 0.623454
380 0.403161 0.951685 0.0499194 0.89334 -3.48905 -1.02227 -0.736048 -0.398267
21 0.499217 0.998527 0.00252613 0.705461 -3.45988 0.112232 1.26237 -1.96354
378 0.448137 0.950387 0.000178992 0.213692 -3.5157 -0.197553 -0.140698 -0.467379
384 0.495936 0.951176 0.0476431 0.648517 -3.50453 0.407097 -0.373144 0.231009
23 0.549202 0.996834 0.0511919 0.961967 -3.49783 -0.110206 0.777042 -0.385083
388 0.599499 0.952113 0.0498953 0.331135 -3.49736 0.244524 -0.0357206 -0.18523
392 0.69994 0.949865 0.0473321 0.203733 -3.51543 -0.401692 0.374787 0.188017
31 0.751537 0.997789 0.0492775 0.352166 -3.51964 -0.526214 0.292498 -0.286188
396 0.799201 0.948879 0.0523587 0.813389 -3.5011 -0.0933903 0.425204 -1.11029
400 0.902137 0.949306 0.0501328 0.394933 -3.50911 -0.54384 0.0773957 -0.102295
39 0.947995 0.998822 0.0506292 0.341314 -3.50822 -0.0542345 -0.0902325 -0.0962614
398 0.950164 0.948527 4.82852e-05 0.261152 -3.50908 -0.0763332 0.59252 -0.246242
402 0.0518795 0.0464955 0.0991159 0.23303 -3.52006 -0.14188 0.200434 -0.0876832
404 0.000764363 0.0506489 0.147649 0.375273 -3.49955 0.0644294 -0.630663 0.13717
406 0.152401 0.0473628 0.0969764 0.527885 -3.51037 -0.355653 0.208159 0.996103
408 0.100279 0.0497693 0.147262 0.384965 -3.51518 0.266621 -0.131278 0.366791
412 0.202113 0.049537 0.150361 0.191947 -3.51112 -0.482679 -0.142504 0.0458902
410 0.250464 0.0477674 0.100465 0.139835 -3.51404 0.0594072 0.248639 0.0304024
413 0.300866 0.000274224 0.099611 0.114476 -3.51098 0.127371 -0.154443 -0.0811129
416 0.303756 0.0501563 0.154254 0.695013 -3.49882 -0.443497 -0.341599 -0.726811
414 0.349544 0.0516672 0.0981777 0.329747 -3.515 -0.202207 -0.666493 0.313141
420 0.396364 0.0479088 0.150718 0.398909 -3.49193 0.804305 0.290371 -0.370625
418 0.445259 0.0517234 0.10196 0.537676 -3.50906 0.275847 -0.496316 -0.321374
424 0.498773 0.0524812 0.149671 0.495708 -3.50395 -0.332492 -0.718169 -0.134284
422 0.54642 0.048768 0.0993763 0.258883 -3.51447 0.0473016 0.216718 -0.372286
423 0.546372 0.00288289 0.148304 0.677799 -3.49423 0.740702 -1.08467 0.588603
425 0.598467 0.00133613 0.101178 0.41065 -3.50481 0.456845 0.133849 -0.776931
426 0.64867 0.0489599 0.0971936 0.239854 -3.51291 0.166275 0.0212746 0.314525
428 0.598794 0.0508006 0.148589 0.246497 -3.5274 0.102761 -0.188702 0.288874
429 0.700051 0.0009512 0.100508 0.310222 -3.51055 -0.212689 0.0773992 -0.418274
432 0.700074 0.0520391 0.149187 0.243257 -3.51459 -0.144682 -0.36313 -0.531501
430 0.751634 0.0503014 0.0997028 0.200652 -3.51486 -0.69868 -0.1262 -0.158993
431 0.751933 0.00152943 0.149803 0.417039 -3.51147 -0.698409 -0.551785 -0.0580776
433 0.798074 0.00117482 0.0985449 0.321555 -3.50549 0.788732 -0.374248 0.317761
436 0.798397 0.051901 0.150289 0.238523 -3.50171 0.378277 -0.487524 0.0249468
434 0.85052 0.0529529 0.0996472 0.404751 -3.51297 -0.447404 -0.768432 0.048778
435 0.850203 0.0014964 0.148204 0.114244 -3.49695 -0.377424 -0.073136 0.108944
437 0.899572 0.00252408 0.100611 0.557792 -3.50658 0.111572 -0.797547 -0.760706
440 0.901321 0.0528476 0.147619 0.52379 -3.51137 -0.0117722 -0.401038 0.567057
438 0.949061 0.0484365 0.0955024 0.59128 -3.48933 0.197557 0.116352 1.26907
441 4.86942e-05 0.0997211 0.0995003 0.227755 -3.49177 0.220861 0.27137 -0.753701
442 0.0530233 0.152877 0.100635 0.943392 -3.48892 -0.757216 -0.720556 -0.678057
443 0.0512009 0.100166 0.143471 1.48959 -3.49651 0.383986 -0.515463 1.18246
445 0.104078 0.0989682 0.0964788 0.633367 -3.5089 -0.688791 0.106164 0.328043
446 0.151795 0.14996 0.100338 0.168629 -3.52434 0.098072 -0.217517 -0.126814
447 0.148561 0.099867 0.149552 0.306408 -3.51715 0.434469 -0.235059 -0.110155
448 0.102327 0.147902 0.152345 0.40118 -3.51072 -0.613595 0.250292 -0.306704
449 0.199757 0.098512 0.100187 0.160688 -3.52028 0.153301 -0.166215 0.394874
452 0.200362 0.149721 0.149971 0.192821 -3.51952 -0.0496489 -0.461507 0.216664
450 0.247651 0.148468 0.101181 0.334777 -3.50685 0.757092 0.342346 0.176149
451 0.252579 0.100492 0.15136 0.322001 -3.52284 -0.273666 -0.288051 -0.178851
453 0.300039 0.100529 0.100423 0.130679 -3.51426 -0.266505 -0.0350391 0.0866709
456 0.297394 0.15322 0.154045 0.903654 -3.51427 0.276068 -0.656593 -0.779387
454 0.348062 0.149206 0.103348 0.275147 -3.51196 -0.0491402 -0.110163 -0.293526
455 0.348539 0.0991941 0.150627 0.212471 -3.50803 0.122682 0.0782096 -0.0457087
457 0.397092 0.0995299 0.0999683 0.106997 -3.52152 0.0588673 0.146541 -0.222229
460 0.399366 0.144938 0.150984 0.64436 -3.50074 -0.397047 0.788565 0.241076
458 0.446023 0.150439 0.100627 0.376779 -3.51447 0.358706 -0.0349357 -0.472683
459 0.446567 0.100661 0.151336 0.303923 -3.49151 0.816696 -0.315714 0.538739
461 0.496002 0.101362 0.0971814 0.411961 -3.51637 0.0921649 -0.278069 0.632251
464 0.49868 0.146835 0.150355 0.302936 -3.52372 0.0881736 0.193048 -0.0330392
462 0.547516 0.147894 0.0985407 0.131416 -3.52741 0.0129556 0.092623 0.207293
463 0.547643 0.0984864 0.150275 0.172521 -3.50791 0.485924 0.0992752 -0.269084
465 0.597499 0.0964893 0.0980041 0.288178 -3.51973 0.0907377 0.228971 0.10197
466 0.648233 0.150948 0.100497 0.307232 -3.50613 0.243194 -0.47201 -0.212837
467 0.648952 0.100745 0.147494 0.249126 -3.52162 -0.0414458 -0.230921 -0.0401528
468 0.597828 0.14704 0.1468 0.511921 -3.52365 -0.058304 0.0222193 0.450974
469 0.70074 0.10214 0.0986363 0.377627 -3.49622 -0.386355 -0.559388 0.0845553
472 0.698668 0.153136 0.153769 0.972314 -3.50084 -0.0216398 -0.592672 -0.744895
471 0.746718 0.10093 0.149259 0.500313 -3.52054 0.448331 0.0721609 0.101259
470 0.750116 0.149021 0.10084 0.25624 -3.50428 -0.0647149 0.467153 -0.233425
473 0.798315 0.0977082 0.0994466 0.243331 -3.51845 0.0611658 0.468183 0.157401
476 0.801709 0.149364 0.149944 0.207098 -3.5165 -0.354633 0.243041 -0.0668536
474 0.848054 0.148594 0.100637 0.247858 -3.47947 0.726932 -0.135009 -0.729647
475 0.848273 0.0977915 0.150823 0.475437 -3.51197 0.3076 0.501849 0.134189
477 0.896114 0.101628 0.100422 0.530302 -3.49477 1.11757 0.228698 -0.108967
480 0.899952 0.15094 0.150663 0.223648 -3.51738 0.225765 -0.304727 0.0190886
444 0.998665 0.146103 0.150778 0.809456 -3.47773 0.923841 1.49587 -0.614572
478 0.95052 0.152763 0.100028 0.477766 -3.49301 -0.582261 -1.21358 -0.0840937
479 0.953075 0.0995911 0.148316 0.347087 -3.47916 -0.995777 -0.0266924 0.203262
481 0.00113773 0.200821 0.0950591 0.946684 -3.44589 0.0303101 -0.571033 2.36281
483 0.0475978 0.200825 0.148351 0.845417 -3.48688 0.727796 -0.377148 0.393029
485 0.105306 0.198481 0.10131 0.702174 -3.49465 -0.845546 0.244522 0.0816281
487 0.152375 0.195515 0.153228 0.62786 -3.50484 -0.562503 0.594687 0.0228787
486 0.149482 0.247549 0.101997 0.23263 -3.50241 0.0922039 0.496333 0.0626731
489 0.199417 0.200575 0.100891 0.257151 -3.52588 -0.0475065 -0.292319 -0.0149391
491 0.247766 0.199639 0.15119 0.227077 -3.50855 0.312192 0.000842682 0.288662
492 0.198138 0.247587 0.152506 0.32572 -3.51864 0.204547 0.369985 -0.0254675
490 0.24714 0.248853 0.100816 0.229898 -3.52042 0.24614 -0.0610536 0.0320069
493 0.301835 0.199714 0.101736 0.562449 -3.50262 -0.823973 -0.200384 -0.369561
496 0.296555 0.246636 0.147477 1.46956 -3.49545 0.822048 1.12661 1.21399
495 0.348537 0.199643 0.151604 0.194347 -3.51611 0.33619 0.0890666 0.190626
497 0.3955 0.19751 0.102521 0.677251 -3.51432 0.438205 0.34175 -0.201284
499 0.449076 0.194902 0.151109 0.553286 -3.51491 0.0737164 0.726795 -0.126115
498 0.450089 0.244766 0.103795 1.16794 -3.50607 -0.583387 0.772463 -0.56867
501 0.500411 0.198105 0.100956 0.300671 -3.50731 -0.177247 0.0984191 -0.0865754