ITEM: TIMESTEP
1250
ITEM: NUMBER OF ATOMS
4000
ITEM: BOX BOUNDS pp pp pp
1.0360312271200969e+00 3.5063968772879832e+01
-4.9355907933095367e-01 3.6593559079330980e+01
-5.0269851318273240e-01 3.6602698513182744e+01
ITEM: ATOMS id xs ys zs c_csym c_peratom fx fy fz
2 0.0490903 0.0472561 0.00211191 0.480396 -3.50596 0.461578 0.473483 -0.972175
4 0.998453 0.047852 0.0489702 0.405294 -3.49328 0.403242 0.645453 0.137668
8 0.101806 0.0451449 0.0480803 0.492964 -3.49302 -0.0927789 0.733518 0.474132
12 0.19951 0.0501338 0.0498688 0.353087 -3.51131 0.19293 -0.260989 -0.0955699
16 0.302475 0.0484874 0.0502121 0.205039 -3.51681 0.0519213 0.319076 0.0405571
20 0.402745 0.0508395 0.0506652 0.228201 -3.49841 -0.162247 -0.750437 -0.281365
19 0.450083 0.99824 0.0508522 0.121038 -3.52294 -0.312361 -0.0388845 -0.692096
24 0.499773 0.0490104 0.0472564 0.241702 -3.52822 0.0147669 0.0809407 0.134797
27 0.650739 0.999788 0.047019 0.165059 -3.51164 0.224897 0.16118 0.342731
28 0.596875 0.0479579 0.0445389 0.980819 -3.4379 1.13037 0.139477 2.02744
32 0.703645 0.0497665 0.0477319 0.258726 -3.48738 -0.818667 -0.105437 -0.137628
36 0.801613 0.0512556 0.0514675 0.631318 -3.49646 0.103764 -0.411046 -0.891234
35 0.852643 1.00234 0.0483269 0.479444 -3.4807 -0.351579 0.364054 -0.625359
40 0.903936 0.0506977 0.0516531 0.716021 -3.44871 -0.425705 1.12402 -0.556103
1 1.00253 -0.000823096 1.00118 0.365443 -3.50931 -0.489257 -0.112943 -0.547475
38 0.949819 0.052275 1.00004 0.400178 -3.49541 -0.3431 -0.318032 0.184724
41 0.998322 0.0983911 0.998624 0.211945 -3.51078 0.519173 0.386028 0.148504
42 0.0528838 0.150345 -0.00104106 0.552843 -3.47959 -0.710291 -1.06902 0.0356008
43 0.0501568 0.0979849 0.0489181 0.13141 -3.52153 0.219831 0.0156306 -0.288877
45 0.101124 0.0984741 -0.00174263 0.130347 -3.51829 -0.47801 -0.0993315 0.489592
46 0.148562 0.149597 0.999097 0.138739 -3.51818 0.0265918 -0.00120206 -0.156905
47 0.152087 0.101226 0.0512064 0.57837 -3.50159 -1.11458 -0.908841 -0.528012
48 0.10101 0.149944 0.0479656 0.130679 -3.49193 0.467465 -0.839852 0.415868
49 0.198458 0.102096 -0.00044705 0.638795 -3.50995 0.157234 -0.739165 -0.244247
52 0.200524 0.147368 0.0488363 0.336589 -3.48575 0.0224025 -0.154261 0.514863
51 0.249777 0.0989643 0.0493768 0.383276 -3.50042 0.639785 -0.739194 0.247367
50 0.254626 0.145437 -0.00218705 1.07268 -3.50039 -0.647653 0.433342 0.368944
56 0.300949 0.148888 0.0525353 0.349583 -3.52245 0.150899 -0.308012 -0.28689
54 0.350493 0.153327 0.00249754 0.588178 -3.49684 0.561442 -1.26136 -0.378644
55 0.353695 0.0994382 0.0501297 0.243763 -3.51417 -0.237503 0.425406 -0.0444051
60 0.403271 0.151329 0.0494728 0.366986 -3.46509 -1.87111 -0.432653 -0.0766639
58 0.445268 0.151211 1.00072 0.957802 -3.44696 2.31507 -0.893394 -1.08133
59 0.449741 0.100269 0.0515606 0.270329 -3.50833 0.250325 0.621322 -0.89602
64 0.498591 0.150617 0.0490763 0.324689 -3.48787 0.359846 0.358505 -0.374115
63 0.552747 0.0975253 0.049519 0.470721 -3.50383 -1.40344 1.20988 -0.0296965
67 0.65118 0.100893 0.0486668 0.233858 -3.49187 -0.239048 -1.13556 -0.0594543
68 0.600422 0.14925 0.0509373 0.162832 -3.5021 0.351564 0.273088 -0.104901
72 0.701094 0.148111 0.0489802 0.221796 -3.51265 0.324759 0.379215 -0.255904
71 0.752496 0.0990035 0.0471228 0.195687 -3.49257 -0.514576 -0.0559261 1.2878
73 0.797899 0.0982323 0.99783 0.681826 -3.49409 0.916703 0.430475 0.130747
76 0.797348 0.148784 0.0471925 0.420037 -3.50709 0.520169 0.19415 0.135963
75 0.850409 0.101511 0.0477567 0.232508 -3.48743 -0.226152 -0.0110273 -0.623615
77 0.900862 0.10149 -0.00150858 0.22818 -3.46649 0.422244 -0.316265 0.928415
80 0.897574 0.148862 0.0494398 0.349709 -3.509 0.580771 0.546171 -0.165587
44 0.999726 0.149719 0.0484973 0.194416 -3.47457 0.167423 -0.0148841 1.09175
78 0.951137 0.149342 -0.00141583 0.272954 -3.51269 -0.111412 0.178449 0.352367
79 0.950504 0.104115 0.0512714 0.764691 -3.51298 -0.263178 -1.27814 -0.267854
83 0.0462079 0.198844 0.0468336 0.719669 -3.49883 0.961033 0.823543 0.603645
84 -0.00376089 0.249826 0.0507587 0.397586 -3.51662 0.623358 0.654369 -0.131317
85 0.0991038 0.199735 -0.000603776 0.107952 -3.50522 -0.293244 0.293041 -0.038029
87 0.150012 0.200583 0.0467913 0.315144 -3.50133 -0.27597 -0.763304 0.966517
86 0.148088 0.247453 0.999089 0.248217 -3.50258 0.347767 0.424296 0.112414
88 0.0983423 0.250014 0.0492869 0.0963161 -3.52721 0.0664932 -0.0504187 0.26046
89 0.202491 0.195386 0.00156655 0.808664 -3.50701 -0.156341 0.561396 -0.207164
91 0.250377 0.196321 0.0502198 0.349078 -3.49958 0.158528 0.399093 -0.338506
92 0.199291 0.251459 0.0486641 0.389989 -3.51094 0.130382 -0.778151 -0.342195
96 0.300913 0.249894 0.0498586 0.190995 -3.50318 0.213482 0.400815 -0.444726
95 0.353344 0.20304 0.0513421 0.383515 -3.49075 0.0110175 -0.154544 0.093001
94 0.351715 0.251261 -0.00111598 0.186209 -3.52829 0.0803339 0.221204 -0.10248
100 0.40148 0.251275 0.0480959 0.131142 -3.51919 -0.162925 0.343863 -0.158347
99 0.449552 0.200627 0.0468453 0.255115 -3.50731 -0.12666 0.537975 0.67212
103 0.553867 0.199228 0.0503362 0.540216 -3.48259 -0.917035 0.943795 0.136613
107 0.651485 0.202125 0.0492366 0.24459 -3.51976 0.0800563 -0.610649 -0.0518308
106 0.649858 0.255516 1.00367 1.07673 -3.47805 0.489424 -1.03249 -0.826909
108 0.601751 0.248813 0.0524096 0.467566 -3.49193 -0.0705455 0.0912373 -0.911187
109 0.701592 0.200589 0.999625 0.121626 -3.51757 -0.0855497 0.294648 -0.0635994
111 0.751703 0.200894 0.0490308 0.202456 -3.51783 -0.50773 -0.481183 -0.110472
112 0.701545 0.250397 0.0490698 0.178848 -3.49741 -0.299313 0.807201 0.13365
113 0.800208 0.198101 1.00108 0.415994 -3.49403 -0.291804 0.921055 -0.307675
116 0.80112 0.249473 0.0495958 0.0682399 -3.5139 -0.300811 -0.141491 0.419949
115 0.847648 0.199648 0.0500373 0.169659 -3.51755 0.380682 -0.129335 0.0422199
120 0.900526 0.249639 0.0510849 0.10449 -3.5232 -0.0728516 -0.0990184 -0.115399
119 0.949836 0.197794 0.0515355 0.315091 -3.50924 -0.102317 0.605449 -0.803751
82 0.0474864 0.251357 0.000275932 0.312543 -3.50196 0.463676 -0.715807 -0.137051
123 0.0489949 0.299212 0.0477932 0.234986 -3.5118 -0.301178 0.0537042 0.21078
125 0.0981016 0.29962 -0.000900223 0.178707 -3.51141 0.51576 0.40834 -0.177146
127 0.151106 0.299852 0.0495741 0.157838 -3.50234 -0.60585 -0.197395 -0.428505
129 0.198937 0.299036 0.99969 0.131307 -3.50986 0.324551 0.498661 0.250115
131 0.251648 0.299848 0.0465562 0.38563 -3.48368 -0.355043 0.749322 1.20362
133 0.300651 0.303343 1.00017 0.638126 -3.48422 0.53429 -1.70042 -0.746133
135 0.350049 0.299343 0.0496566 0.300847 -3.52498 0.393301 0.20845 -0.0628361
137 0.400887 0.302609 0.996533 0.417454 -3.47148 -0.370586 -0.644801 0.393903
98 0.447093 0.251605 -0.00389326 0.492543 -3.51114 0.346203 0.0809825 0.431615
139 0.448572 0.301476 0.0483849 0.159939 -3.51529 0.456222 -0.297836 -0.301211
104 0.499173 0.250347 0.0488105 0.164698 -3.49753 0.12933 0.166787 -0.343734
141 0.499059 0.30401 -0.00157109 0.472306 -3.49807 -0.243434 -0.979057 0.376363
102 0.549041 0.253804 0.000207547 0.485028 -3.50937 0.414205 -0.81048 0.212968
143 0.550797 0.300332 0.0520652 0.297354 -3.51221 -0.653893 -0.10636 -0.691093
145 0.600013 0.300791 1.00292 0.105437 -3.50261 -0.115876 0.222139 -0.339475
147 0.650701 0.30169 0.053912 0.429009 -3.5053 0.473544 -0.161106 -0.642066
149 0.700473 0.302848 1.00165 0.246208 -3.50408 -0.122201 -0.668498 -0.334669
151 0.753026 0.299993 0.0488466 0.339384 -3.50383 -0.364473 -0.118631 0.122537
153 0.803377 0.300945 0.999758 0.22728 -3.51151 -0.292882 -0.035394 0.0425075
114 0.852595 0.250413 0.000462288 0.214129 -3.49581 -0.823933 0.190229 0.313896
155 0.850634 0.298999 0.0502111 0.148775 -3.50801 0.0149235 0.0581465 0.49256
118 0.949809 0.251343 -4.31836e-05 0.261113 -3.48065 -0.201969 -0.980427 1.03583
159 0.947853 0.302092 0.0510586 0.341464 -3.45669 0.174183 -0.877155 1.06745
124 0.993387 0.34975 0.0506228 1.00525 -3.45713 1.75426 -0.531582 -0.67515
163 0.0495271 0.40022 0.047959 0.499075 -3.51023 -0.200607 -0.642928 0.684118
126 0.152385 0.351096 0.00053613 0.244846 -3.5102 -0.694455 0.119682 0.183473
128 0.100004 0.346979 0.0517946 0.41442 -3.51306 -0.0303378 0.682518 -0.583738
165 0.100464 0.401328 1.00239 0.180277 -3.49778 -0.0610033 -0.26433 -0.263396
167 0.15094 0.400656 0.0524213 0.136556 -3.50994 -0.304606 -0.277091 -0.376579
132 0.199498 0.351912 0.0513539 0.275448 -3.4977 0.498411 -0.465349 -1.01759
169 0.202904 0.403406 0.00140883 0.489593 -3.50656 -0.694651 -0.109557 0.04045
171 0.249053 0.401725 0.0495489 0.191965 -3.51529 0.494399 -0.0794302 0.11246
130 0.249236 0.351621 0.998901 0.197072 -3.50072 -0.335782 -0.392733 -0.0173239
136 0.300457 0.350053 0.046331 0.502082 -3.5016 -0.201652 0.113241 0.70157
134 0.354491 0.35087 1.00217 0.964619 -3.41738 -0.918611 0.261442 -1.05513
140 0.403105 0.34968 0.0481846 0.368659 -3.47261 -0.607439 0.759738 0.467427
175 0.349458 0.399946 0.0503683 0.292694 -3.52214 0.483968 0.314541 -0.109218
179 0.44717 0.397632 0.0498807 0.647891 -3.4765 0.422037 1.7764 -0.914315
144 0.498539 0.352848 0.0467968 0.407799 -3.50666 -0.113092 -0.701451 0.747111
142 0.548537 0.348898 0.000538579 0.311886 -3.48651 0.163699 1.1412 0.0109603
181 0.497457 0.402052 0.997836 0.219733 -3.50859 0.307677 -0.477341 -0.474929
183 0.546571 0.403632 0.0495604 0.541791 -3.5091 0.467685 -0.820315 -0.424629
146 0.649626 0.350551 0.00272454 0.13537 -3.50417 0.0691936 0.125536 -0.693499
148 0.599239 0.351775 0.0483309 0.342408 -3.48948 -0.115548 -0.471438 1.3176
187 0.649749 0.399563 0.0500237 0.295238 -3.5133 0.00372215 0.318695 0.725832
152 0.699192 0.350923 0.0504053 0.214602 -3.51096 0.270487 0.195524 -0.167732
189 0.698793 0.404101 1.003 0.744093 -3.49308 0.134189 -1.15824 -0.524325
191 0.751689 0.399658 0.0504894 0.330513 -3.50107 -0.395631 0.79617 0.311023
150 0.751977 0.347299 0.00310926 0.667937 -3.48129 -0.398891 0.788739 -0.570839
156 0.801643 0.353725 0.0476888 0.802499 -3.48122 0.206333 -1.21014 0.959242
193 0.803287 0.397999 1.00188 0.541579 -3.48882 -0.188895 0.901362 -0.897058
160 0.902463 0.350536 0.0488734 0.389885 -3.49158 -1.15879 -0.636269 0.374452
195 0.851274 0.400489 0.0499686 0.143656 -3.48566 0.0544789 0.0625689 -0.0396436
197 0.89831 0.400152 1.00103 0.246653 -3.51465 0.559877 -0.0897861 -0.212662
158 0.948965 0.349402 1.00142 0.240091 -3.45227 -0.677767 1.70555 -1.20749
199 0.947731 0.401344 0.0519694 0.365416 -3.50744 0.174977 -0.435792 -0.69849
162 0.0472291 0.449655 1.00176 0.229658 -3.51529 0.519603 0.255433 -0.209875
203 0.0502676 0.501465 0.0514466 0.121334 -3.51378 -0.290178 -0.0267305 -0.0726013
168 0.101286 0.450682 0.0518562 0.231255 -3.50388 -0.287948 -0.214674 0.205087
172 0.200171 0.450846 0.0538703 0.299564 -3.49918 0.876119 -0.00727488 -1.09507
170 0.254748 0.453142 0.000720502 0.600124 -3.46848 -0.600553 -0.0981343 0.806022
176 0.300186 0.451816 0.0494673 0.223106 -3.51979 0.316693 -0.687063 0.644034
211 0.2517 0.503207 0.0527853 0.338934 -3.50807 -0.0804584 -0.721063 -0.507077
213 0.303511 0.501096 -0.00036006 0.455184 -3.46682 -1.49912 1.22902 -0.439139
180 0.397548 0.450122 0.0486991 0.248359 -3.51764 0.0922266 0.178998 -0.195437
184 0.497255 0.45058 0.0476811 0.220137 -3.48383 0.5391 0.345286 0.597354
223 0.546556 0.500121 0.0482947 0.501595 -3.49341 0.380724 -0.290397 0.285857
188 0.602819 0.451778 0.0495467 0.755716 -3.47068 -0.751265 -0.353596 0.359504
227 0.64751 0.500354 0.0489589 0.380068 -3.49003 0.340425 0.728767 0.160101
192 0.698255 0.45509 0.0498282 0.615113 -3.49324 0.161586 -0.765884 0.197962
196 0.799458 0.449651 0.049413 0.26456 -3.51233 0.254112 0.3969 0.397978
194 0.847484 0.45324 0.000722856 0.489104 -3.51549 0.455563 -0.26976 -0.0326064
200 0.901235 0.452555 0.0475554 0.469875 -3.47373 -1.74072 -0.0251986 0.64507
235 0.852001 0.504673 0.0501173 0.626768 -3.49694 -0.37124 -1.32208 0.095497
237 0.899323 0.505064 0.998173 0.698178 -3.48112 0.495986 -0.636023 0.925913
164 0.000737318 0.449196 0.0510562 0.389711 -3.49565 -0.441817 0.303612 -0.522665
198 0.948536 0.449309 -0.000675355 0.198171 -3.47621 0.281679 1.14557 0.655414
201 -0.00118626 0.501868 1.00247 0.182441 -3.51852 -0.255048 -0.169991 -0.06859
204 0.00171484 0.554111 0.0507017 0.439926 -3.50373 -0.291219 -0.48555 -0.163985
205 0.101235 0.501538 1.0045 0.267925 -3.51506 -0.146488 -0.318447 -0.482423
207 0.153095 0.499777 0.0508889 0.28298 -3.46967 -0.787527 0.369261 0.850505
208 0.101002 0.55098 0.0526898 0.16329 -3.52346 -0.0285953 0.076487 0.112939
212 0.202259 0.551227 0.054539 0.35357 -3.51123 -0.284468 0.116044 -0.672085
210 0.252278 0.551324 0.00261967 0.230831 -3.49752 -0.264459 -0.241029 -0.408161
216 0.298397 0.550624 0.0513587 0.174594 -3.49069 0.411054 0.23812 -0.31297
215 0.34861 0.501176 0.0481473 0.184461 -3.49926 0.376057 -0.936722 0.0752289
220 0.398503 0.551387 0.0487507 0.219062 -3.52496 0.20082 -0.324232 0.0888138
218 0.449866 0.546562 -0.0026343 0.761154 -3.49192 0.261603 1.05516 0.0240886
219 0.451986 0.499728 0.0480687 0.348978 -3.50087 -0.505684 0.540552 0.337948
224 0.500742 0.549417 0.0485993 0.182216 -3.51023 -0.216702 0.491371 0.146165
221 0.501521 0.501628 -0.00205748 0.2876 -3.49414 -0.186478 -0.929528 -0.453489
222 0.549544 0.547696 0.999201 0.402243 -3.48364 0.0485065 0.591109 -0.940446
226 0.649324 0.554102 -0.000697001 0.460521 -3.50535 -0.0368523 -0.762485 0.0121925
228 0.598967 0.554122 0.0511873 0.617034 -3.4907 0.147172 -0.664697 -0.644712
232 0.697331 0.55169 0.0515561 0.250253 -3.51202 0.107828 -0.436816 -0.397057
230 0.747985 0.547389 1.00026 0.533447 -3.45132 -0.479789 0.894863 -0.358607
231 0.74676 0.500912 0.0521511 0.32147 -3.51149 0.407371 0.0676549 -0.34275
236 0.799151 0.550448 0.0481939 0.351285 -3.5063 0.155406 -0.0582366 0.369464
234 0.851751 0.550793 0.00157721 0.28036 -3.47887 -0.497988 0.226802 0.0675803
240 0.90322 0.553268 0.0533751 0.722023 -3.50745 -0.459557 -0.600072 -0.77104
239 0.947737 0.501778 0.0488085 0.390739 -3.48521 0.680335 -0.114244 -0.559373
243 0.0501966 0.601272 0.0512631 0.106564 -3.50595 0.334832 -0.171792 0.0291504
247 0.149213 0.602377 0.0501046 0.304376 -3.50765 0.521809 -0.558279 0.636157
248 0.101947 0.651083 0.0513871 0.186008 -3.50855 -0.50591 -0.517137 0.508406
252 0.200022 0.651178 0.050137 0.14911 -3.51931 -0.275237 0.499907 -0.00196834
251 0.248101 0.601043 0.0536992 0.300577 -3.51136 0.104774 0.285018 -0.74882
256 0.297233 0.653427 0.0510012 0.391059 -3.52473 0.158669 -0.355431 -0.0516859
255 0.349746 0.600366 0.0485595 0.191499 -3.52344 -0.0128564 0.403116 0.257057
257 0.403135 0.60037 -8.98505e-05 0.450192 -3.505 -0.469558 -0.416911 -0.372707
260 0.402388 0.651043 0.0481947 0.180144 -3.50688 -0.193044 -0.0235654 0.842192
259 0.449514 0.598666 0.0478295 0.265324 -3.50162 0.365519 0.241399 0.353902
261 0.501951 0.602189 0.998955 0.381368 -3.49982 -0.541889 -0.704064 -0.0955884
264 0.498456 0.651068 0.0497433 0.302609 -3.51599 0.346185 -0.0662262 -0.0540786
262 0.551025 0.649572 -0.00175885 0.161058 -3.51316 0.135104 0.561762 0.303389
263 0.549064 0.60026 0.046184 0.451832 -3.45973 0.362239 0.941015 0.925056
265 0.598521 0.599454 -0.000234334 0.219641 -3.4988 0.216079 0.249427 0.0148997
266 0.650644 0.650214 0.000549188 0.0612326 -3.52286 -0.188036 0.0857123 -0.36471
267 0.649814 0.6005 0.0514272 0.14659 -3.51552 -0.0122546 0.291785 -0.270769
268 0.600804 0.651539 0.0485756 0.128391 -3.52518 -0.159211 -0.163358 0.249123
269 0.700275 0.601358 1.00104 0.212101 -3.50968 -0.0272899 -0.562344 -0.333493
272 0.699018 0.650002 0.0496761 0.127741 -3.51268 0.141835 0.21967 0.51198
271 0.749752 0.596984 0.0505634 0.358387 -3.51121 -0.268756 0.397499 0.00103389
276 0.799654 0.651111 0.051804 0.236667 -3.50097 -0.137795 0.130955 -0.257297
275 0.852496 0.603103 0.0528705 0.516112 -3.50969 -0.415836 -0.761947 -0.294198
277 0.897477 0.601408 1.00157 0.389006 -3.52264 0.690901 0.473148 -0.045033
280 0.902579 0.651758 0.0528557 0.39073 -3.5017 -0.533739 -0.180133 -0.429306
244 0.000696725 0.652405 0.0485878 0.300381 -3.50302 -0.133669 -0.443436 0.86178
278 0.950253 0.650425 1.00114 0.267585 -3.47203 -0.377994 0.293059 -0.688479
279 0.951058 0.602695 0.0503982 0.125836 -3.52349 0.0304601 -0.193625 -0.154901
283 0.0513414 0.698993 0.0489009 0.36357 -3.48148 0.407519 0.539991 0.373337
282 0.0466401 0.752831 0.998297 0.915626 -3.47096 1.50897 -1.05062 0.379139
287 0.147629 0.702805 0.0508613 0.401273 -3.51144 1.08502 -0.820399 -0.0411485
289 0.198459 0.700489 -0.00204028 0.344103 -3.50471 0.148484 0.00940208 0.899799
292 0.201762 0.751727 0.0502658 0.146816 -3.50218 -0.263617 -0.0425865 0.028247
291 0.249869 0.703786 0.0516198 0.36201 -3.51199 0.0167298 -0.443211 -0.326098
295 0.352266 0.701748 0.0507618 0.290976 -3.46337 -0.452237 0.536728 -0.0665056
297 0.404036 0.703123 -0.00253937 0.770169 -3.50305 -0.900941 -0.529419 0.308686
294 0.34735 0.752833 -0.00231802 0.563009 -3.49209 0.416737 -1.00725 0.556358
300 0.398585 0.749715 0.0489677 0.375452 -3.50255 0.989574 0.668099 0.00967465
299 0.45144 0.699835 0.0499425 0.132269 -3.5114 0.436885 0.775557 -0.310615
301 0.501414 0.6998 -0.00295779 0.173781 -3.51998 0.142556 0.368847 0.627422
303 0.551267 0.699974 0.050159 0.0757072 -3.52305 -0.162371 -0.0701202 -0.216775
302 0.552763 0.750334 -0.00151493 0.102996 -3.52238 -0.225241 -0.15719 0.0643716
305 0.602135 0.702418 0.00121633 0.417733 -3.52326 -0.0407071 -0.424003 -0.302864
307 0.653081 0.700774 0.0502546 0.197181 -3.48928 -0.616746 0.983277 0.415421
311 0.746901 0.700403 0.0493301 0.336187 -3.50461 0.107483 0.280821 0.313945
312 0.70024 0.751291 0.0501481 0.146429 -3.52234 0.302686 0.591769 -0.077709
315 0.850476 0.697289 0.0504666 0.573222 -3.51043 0.178987 0.83062 -0.155011
281 0.995858 0.702077 1.00074 0.796442 -3.4621 1.13569 -0.454166 0.2295
319 0.947231 0.701105 0.0504436 0.636162 -3.4922 0.729871 -0.121896 0.44059
284 1.00226 0.747703 0.052124 0.669287 -3.49154 -0.265491 0.529688 -0.356088
323 0.048737 0.799153 0.0499595 0.239055 -3.50562 0.174183 0.409035 -0.709886
288 0.0985106 0.750896 0.0480072 0.447274 -3.49954 0.0240394 -0.196781 0.65085
327 0.152307 0.80148 0.0513738 0.280948 -3.51116 -0.176534 0.0201572 -0.406738
296 0.300287 0.750963 0.0496497 0.157711 -3.51544 -0.0175523 0.0232455 0.281337
331 0.251797 0.802585 0.0490577 0.200431 -3.49518 0.0712659 -0.748357 -0.01657
333 0.300109 0.800923 0.999296 0.155763 -3.49385 -0.589283 0.809527 -0.244121
335 0.347618 0.800417 0.0449378 0.9986 -3.49019 0.830932 -0.190018 1.22695
298 0.451091 0.749941 -0.00319674 0.138814 -3.47954 0.485454 0.183271 0.530514
339 0.450579 0.797421 0.047377 0.345846 -3.5153 0.226827 0.12555 0.730165
304 0.503118 0.750303 0.0499616 0.130662 -3.51744 -0.187898 -0.196156 -0.220007
343 0.55658 0.800679 0.0493841 0.59211 -3.499 -1.47117 0.525112 -0.297232
308 0.601926 0.750561 0.0503889 0.162212 -3.50345 0.598385 0.385143 -0.0980166
347 0.65071 0.800916 0.0494473 0.175354 -3.50938 -0.0258022 -0.455504 -0.21102
351 0.750521 0.801501 0.0466313 0.458169 -3.49448 -0.841038 -0.104294 0.606946
316 0.800343 0.74917 0.0518467 0.418951 -3.49844 0.0608229 0.665289 -0.762811
320 0.902423 0.75386 0.0532717 1.19819 -3.44724 -0.681407 -0.526986 -0.744752
355 0.84871 0.799033 0.0490177 0.287823 -3.50815 -0.112107 0.673342 0.194938
321 1.00069 0.799262 -0.00144809 0.25862 -3.46515 -0.4748 0.299233 0.0461373
318 0.951866 0.747793 0.00017509 0.492848 -3.47552 -0.498196 1.35497 0.355882
359 0.953453 0.798904 0.0486291 0.330998 -3.50513 -0.222179 0.167221 0.13119
322 0.0498216 0.85327 -0.000988745 0.547111 -3.50189 -0.118285 -1.1238 0.000798122
324 0.00128079 0.848304 0.0510626 0.290713 -3.51575 -0.323521 0.513603 -0.406984
363 0.050475 0.897933 0.0512049 0.426785 -3.4945 -0.209737 1.13021 -0.753063
328 0.0979164 0.850962 0.0511895 0.244592 -3.49416 0.115893 0.423193 -0.550941
365 0.100304 0.902155 -0.00228025 0.236524 -3.48721 -0.0390643 -0.283484 0.699218
367 0.147109 0.902668 0.0486209 0.47893 -3.5008 0.658738 -0.406857 0.403467
332 0.200026 0.855217 0.0506291 0.641874 -3.50487 -0.0602876 -0.823587 -0.408251
371 0.248924 0.900807 0.0516285 0.407993 -3.48809 0.876414 -0.468722 -0.542305
330 0.250692 0.855641 0.998393 0.529421 -3.5077 0.0619297 -0.799718 0.171224
336 0.301395 0.850912 0.0504023 0.21167 -3.51783 -0.524789 0.0083841 -0.510363
334 0.349101 0.850819 -0.00297318 0.379267 -3.50899 0.19671 -0.272741 0.346633
340 0.402133 0.846352 0.05005 0.33657 -3.51992 -0.642646 0.281697 -0.450857
375 0.353674 0.89764 0.0528016 0.622646 -3.49059 -0.511335 -0.131237 -0.541782
377 0.405174 0.896971 0.999882 0.577134 -3.50113 -0.648856 -0.258753 0.114482
379 0.449099 0.896263 0.0497949 0.221928 -3.50465 0.587915 0.252826 0.54765
344 0.500832 0.84896 0.0487839 0.130084 -3.51649 0.0390762 -0.0151833 0.130831
383 0.547798 0.901232 0.0485137 0.389152 -3.51013 0.584785 -0.597936 -0.039802
348 0.604732 0.852568 0.0478382 0.697685 -3.47498 -1.23873 -0.755021 -0.220453
387 0.648419 0.900001 0.0490062 0.343057 -3.46622 0.900031 0.186343 -0.35263
352 0.698769 0.850271 0.0505255 0.324483 -3.51351 0.319205 -0.013984 -0.446461
391 0.752149 0.903039 0.0455364 0.595235 -3.48993 -0.733484 -0.484499 1.36874
356 0.798036 0.853301 0.0497254 0.454968 -3.50662 1.44021 -0.839114 -0.992501
360 0.901147 0.848645 0.0475909 0.215371 -3.50533 -0.158786 -0.0517871 0.816062
395 0.851827 0.899092 0.0464654 0.494061 -3.52207 -0.335289 0.316637 0.255426
399 0.950519 0.900273 0.047552 0.205729 -3.49492 -0.368322 -0.0178011 0.556417
3 0.0507348 -0.0054166 0.0496255 0.795784 -3.47735 0.468001 1.38291 -0.0200925
364 1.00036 0.950184 0.048993 0.106374 -3.47896 -0.598763 0.346953 0.400171
5 0.0990773 0.998336 -0.00582862 0.814044 -3.4979 0.406113 -0.333655 1.21625
7 0.149792 -0.00476892 0.0483773 0.69107 -3.50544 0.140661 0.351741 0.397287
366 0.150624 0.950629 -0.00322362 0.310706 -3.50325 -0.28873 -0.461419 0.143611
368 0.100385 0.950525 0.0505118 0.410926 -3.45249 -0.710613 -0.745566 -0.640387
11 0.250179 -3.80696e-05 0.0505931 0.268305 -3.51514 0.219913 -0.141719 -0.232667
372 0.202592 0.947975 0.0492389 0.476467 -3.48944 -0.61457 0.140759 0.459689
13 0.300993 1.00233 0.99902 0.605008 -3.50828 0.353649 -0.852524 0.434924
370 0.254106 0.950204 1.00124 0.676106 -3.50511 -1.33275 0.351549 -0.545247
376 0.299497 0.951226 0.0511568 0.360842 -3.49634 0.628767 -0.264867 -0.488395
15 0.354148 0.997994 0.0492594 0.275205 -3.51369 -0.419935 0.350383 0.655752
380 0.40037 0.946603 0.0506823 0.165575 -3.5041 0.576211 0.636546 -0.542429
21 0.496828 0.999816 -0.00237237 0.329127 -3.48688 0.50047 -0.0906626 0.717014
378 0.450638 0.947478 1.00014 0.12342 -3.49309 -0.803472 0.874761 0.10838
384 0.497514 0.946199 0.0475507 0.309522 -3.48267 -0.0742227 0.968798 0.122748
23 0.545307 -0.00272306 0.0456182 0.726302 -3.51072 0.752203 0.277179 0.338124
388 0.602351 0.949925 0.0502295 0.670825 -3.49501 -0.170725 0.0821753 -0.926486
392 0.700357 0.951253 0.0483855 0.237058 -3.50736 0.0655422 -0.334164 0.506297
31 0.749954 1.00358 0.0480993 0.739179 -3.49883 1.27723 -1.28437 0.225262
396 0.80344 0.951926 0.0484839 0.290974 -3.4978 -0.0332429 -0.319957 -0.487286
400 0.8961 0.953589 0.0491593 1.25327 -3.43435 1.29275 -1.32099 -0.146998
39 0.94914 0.00303926 0.0485622 0.473778 -3.47938 -0.148987 -1.18198 0.184361
398 0.953367 0.950022 0.997706 0.521368 -3.48908 -0.65529 0.0157179 0.756649
402 0.0527277 0.0491493 0.0999384 0.411591 -3.50178 -0.457758 -0.00877756 -0.602779
404 1.00103 0.0508004 0.149913 0.104841 -3.51785 0.052839 0.102333 0.299327
406 0.150321 0.0469261 0.0993989 0.342386 -3.50872 -0.373152 0.285578 -0.0509681
408 0.097259 0.0496226 0.149827 0.396067 -3.50609 0.528819 0.201381 0.0657488
412 0.201238 0.0483216 0.149596 0.131069 -3.52552 -0.251298 0.165488 0.23515
410 0.252943 0.0433878 0.100379 1.22119 -3.46906 0.117717 1.714 -0.241839
413 0.305312 -0.00129649 0.10092 0.678815 -3.49036 -0.587595 0.201431 -0.151036
416 0.299766 0.0492589 0.150164 0.161706 -3.50123 0.10534 -0.466187 -0.22473
414 0.351421 0.0530308 0.0985966 0.59582 -3.51142 0.247471 -0.925764 0.0493824
420 0.402397 0.0486665 0.150439 0.326989 -3.50268 0.120401 0.494523 -0.457882
418 0.450641 0.0486819 0.0995044 0.140193 -3.48013 -0.106467 0.533016 1.18904
424 0.50245 0.049496 0.149229 0.190221 -3.51673 -0.467837 0.219751 0.166518
422 0.550029 0.0478107 0.0986725 0.12297 -3.5199 -0.00368672 -0.192332 -0.542467
423 0.550498 1.0005 0.147168 0.154469 -3.51382 -0.268041 -0.533369 -0.102379
425 0.600371 -0.00106705 0.0970106 0.124572 -3.52049 -0.00215878 0.178272 -0.0905569
426 0.649724 0.0508487 0.099387 0.27108 -3.50151 0.211336 -0.238648 -0.780337
428 0.601429 0.0493569 0.147786 0.0800949 -3.50498 -0.256533 -0.155325 0.224948
429 0.701712 0.000355438 0.0989839 0.134551 -3.53029 -0.133135 0.15209 -0.205683
432 0.701142 0.0500008 0.147316 0.140314 -3.52574 0.0248588 -0.0478596 -0.0290857
430 0.753723 0.0493424 0.10101 0.37562 -3.51145 -0.374299 0.260805 -0.470803
431 0.750335 -0.00466754 0.149982 0.731476 -3.50928 0.603403 0.461993 -0.651464
433 0.803015 -0.00408313 0.0978182 0.799194 -3.50338 0.0766284 0.865435 0.386931
436 0.803776 0.0477515 0.149421 0.423323 -3.47866 -0.182603 0.265984 -0.804537
434 0.850481 0.0533481 0.0963064 0.942202 -3.47025 0.369701 -0.438324 0.523129
435 0.849586 -0.00198705 0.151217 0.291983 -3.4645 0.325973 -0.016787 -0.312742
437 0.895972 0.999891 0.0997053 0.745814 -3.48708 0.609789 -0.0628287 0.397226
440 0.90017 0.0474008 0.150067 0.439878 -3.51211 -0.284301 0.423751 -0.13062
438 0.952332 0.0506589 0.101368 0.313181 -3.50774 -0.451777 0.244339 -0.269951
441 0.00264172 0.0989676 0.0991035 0.28519 -3.5113 -0.163971 0.461111 -0.00207754
442 0.0561102 0.147137 0.098028 0.967087 -3.46865 -1.99031 1.45422 0.984449
443 0.0496828 0.100714 0.150998 0.276091 -3.52247 0.188156 -0.0955988 -0.311406
445 0.0999653 0.0998448 0.0984672 0.341426 -3.46782 0.731141 -0.641161 -1.07765
446 0.154286 0.149896 0.100589 0.588928 -3.47058 -1.0478 -0.000565053 -1.61678
447 0.153077 0.100381 0.146405 0.501045 -3.50144 -0.416491 -0.645708 0.35282
448 0.10402 0.148368 0.146523 0.429909 -3.50854 -0.0025021 0.0917406 0.750136
449 0.202676 0.0953419 0.0995009 0.549009 -3.50955 -0.248565 1.07173 -0.0774089
452 0.200672 0.14896 0.148169 0.117661 -3.4661 0.432046 1.26922 0.12061
450 0.247183 0.149622 0.0991885 0.43544 -3.5063 0.627013 -0.485071 0.358139
451 0.250111 0.0974647 0.150163 0.148743 -3.50066 -0.19603 0.219473 -0.890851
453 0.298863 0.099449 0.101556 0.336941 -3.50967 0.0601068 0.0931914 -0.587109
456 0.300477 0.150126 0.149078 0.117002 -3.52533 -0.275973 -0.108651 0.0522462
454 0.352404 0.151259 0.099577 0.142443 -3.5078 -0.164406 -0.240587 -0.0303591
455 0.349041 0.0977108 0.148263 0.414911 -3.51578 0.341772 0.67588 0.227476
457 0.400819 0.103184 0.0999245 0.302254 -3.50991 0.345916 -0.542356 0.523369
460 0.401315 0.150925 0.150252 0.233209 -3.51069 -0.70487 0.275026 -0.445175
458 0.449587 0.154062 0.100111 0.354658 -3.51161 0.33832 -0.577513 -0.4146
459 0.451053 0.104473 0.150728 0.592869 -3.47525 -0.261337 -1.81007 -0.451752
461 0.499553 0.0972849 0.0983344 0.394606 -3.49845 0.480051 1.12845 0.258113
464 0.499999 0.151652 0.148761 0.292605 -3.47712 0.781175 -0.996781 -0.0965279
462 0.548841 0.14956 0.101689 0.579733 -3.50225 0.282943 0.318476 -1.05729
463 0.55385 0.0982988 0.146003 0.516104 -3.46604 -1.46336 0.549103 1.08113
465 0.599635 0.0969652 0.0997279 0.470622 -3.42844 0.957321 -0.498092 -1.17619
466 0.653998 0.150565 0.0970822 0.51041 -3.50795 -0.285647 -0.34566 0.344947
467 0.652051 0.100041 0.148638 0.144543 -3.51136 0.307965 -0.177776 -0.412014
468 0.601823 0.14533 0.145087 1.03117 -3.47482 0.150863 1.26046 0.865202
469 0.703646 0.100315 0.0978739 0.16086 -3.52352 -0.179386 -0.310922 0.222234
472 0.69975 0.150733 0.149799 0.284716 -3.51301 0.509265 -0.113341 -0.282063
471 0.752874 0.0992293 0.150499 0.263801 -3.51522 -0.470948 0.00508798 -0.52451
470 0.751682 0.149829 0.0991623 0.0929858 -3.50349 -0.760942 -0.176558 0.0191212
473 0.800767 0.101492 0.0978081 0.224164 -3.486 -0.257552 -0.54487 0.790822
476 0.800257 0.149997 0.148447 0.132611 -3.50065 0.533739 -0.701864 0.423128
474 0.850753 0.148072 0.0983066 0.230158 -3.51024 -0.0791394 0.418472 -0.0768421
475 0.849737 0.0983891 0.148317 0.211962 -3.5113 0.0395651 -0.0966989 0.916799
477 0.900025 0.101008 0.101824 0.301146 -3.50647 0.0533498 -0.295969 -0.0190207
480 0.899287 0.150293 0.150781 0.192509 -3.52134 -0.299147 -0.153224 -0.0645083
444 0.000825366 0.150127 0.149003 0.174236 -3.50397 0.271025 -0.0885984 -0.126111
478 0.945782 0.150763 0.100688 0.74235 -3.4959 1.04065 -0.223122 -0.24728
479 0.952381 0.100782 0.149989 0.221174 -3.52301 -0.239006 0.0199467 -0.111118
481 0.00302323 0.199428 0.101947 0.651467 -3.48995 -0.454581 -0.893964 -0.292688
483 0.055343 0.19751 0.151021 0.701793 -3.49677 -0.798796 -0.357001 -0.812795
485 0.100684 0.198282 0.0970355 0.244235 -3.51514 0.221176 0.610896 0.108618
487 0.153705 0.201382 0.148582 0.261966 -3.52382 -0.237913 -0.0570454 -0.0921834
486 0.150121 0.251652 0.099795 0.271679 -3.52055 -0.119803 -0.380245 -0.0974172
489 0.200099 0.199325 0.0958333 0.356406 -3.48871 0.546921 0.23608 1.3751
491 0.249739 0.200912 0.148759 0.184159 -3.5015 0.266191 -0.31298 -0.192067
492 0.20441 0.248814 0.14718 0.626706 -3.47589 -1.28786 1.02499 0.917566
490 0.250069 0.248098 0.094934 0.592231 -3.48763 0.747107 0.560382 1.06336
493 0.301237 0.197609 0.0999399 0.345875 -3.51457 -0.11098 0.806924 0.0953236
496 0.30427 0.250446 0.149907 0.412777 -3.49871 -0.770494 -0.0416458 -0.512292
495 0.350817 0.200391 0.149035 0.0885622 -3.52233 0.122712 0.13075 0.0152009
497 0.398446 0.20329 0.0991207 0.458017 -3.48719 0.436541 -0.59923 0.521317
499 0.449825 0.202331 0.144621 0.93712 -3.47351 0.305605 -0.0233765 2.25283
498 0.454099 0.249555 0.0981665 0.535333 -3.5064 -0.570228 0.329067 0.0765562
501 0.503597 0.201375 0.0987999 0.348921 -3.50925 -0.142445 -0.182303 -0.181878
503 0.553334 0.201788 0.150593 0.404607 -3.51826 -0.221332 -0.205057 -0.101629
502 0.55157 0.253236 0.10056 0.45812 -3.48085 -0.530839 -1.28359 -0.204354