ITEM: TIMESTEP
1000
ITEM: NUMBER OF ATOMS
4000
ITEM: BOX BOUNDS pp pp pp
8.0917831014836539e-01 3.5290821689851562e+01
-4.2646532305789009e-01 3.6526465323057749e+01
-4.3507921765755597e-01 3.6535079217657596e+01
ITEM: ATOMS id xs ys zs c_csym c_peratom fx fy fz
2 0.0488018 0.0515635 0.00330492 0.204138 -3.50828 0.0391043 -0.754615 0.0463037
4 1.00003 0.0534949 0.0518153 0.514464 -3.51069 -0.0399298 -0.341139 -0.381815
8 0.0968126 0.0501341 0.0532019 0.25602 -3.52538 0.223353 0.0129669 -0.034975
12 0.200509 0.0513958 0.0483986 0.270911 -3.49267 0.175728 -0.717402 0.890733
16 0.30087 0.0490835 0.0514229 0.184175 -3.51264 -0.0155756 0.291934 -0.0434105
20 0.398035 0.0478899 0.0501321 0.286479 -3.48728 0.360045 0.341206 -0.271097
19 0.451354 0.996868 0.0483179 0.357103 -3.5094 -0.511672 0.661891 0.31674
24 0.500291 0.0508472 0.0495859 0.372802 -3.50342 -0.543043 -0.631507 0.0744348
27 0.646942 0.995389 0.0509082 0.870967 -3.50002 0.390683 0.604431 -0.367121
28 0.596889 0.0511968 0.0480688 0.417753 -3.50911 0.0542911 -0.357462 0.0667822
32 0.698331 0.0489187 0.0498724 0.13103 -3.51646 0.178003 0.0159533 -0.127823
36 0.800216 0.0487862 0.0481945 0.270348 -3.50575 0.189215 0.397968 0.45284
35 0.852962 1.00242 0.0465361 0.543544 -3.50412 -0.335495 -0.868476 0.745405
40 0.901952 0.0490534 0.0522018 0.299266 -3.48846 -0.265732 0.218346 -1.17881
1 0.99837 -0.00107039 1.00517 0.818005 -3.50153 0.861675 0.188532 -1.42142
38 0.950774 0.0505753 0.999144 0.31593 -3.51048 0.0930579 -0.248125 1.20481
41 1.00077 0.0995466 0.998831 0.496765 -3.48907 -0.314009 0.25492 0.956963
42 0.0491212 0.147491 0.000380714 0.362619 -3.496 0.557896 0.404326 -0.0102823
43 0.0483911 0.101986 0.0547342 0.585039 -3.48852 0.444824 -0.861975 -0.353507
45 0.0979973 0.0978174 0.00321162 0.239204 -3.51106 0.0476646 0.585038 -0.116084
46 0.14854 0.15062 1.00214 0.11258 -3.51445 0.133644 -0.0485395 -0.526415
47 0.148712 0.100819 0.0514949 0.0756587 -3.52952 -0.130763 -0.157646 0.254414
48 0.0982127 0.151044 0.0513832 0.153925 -3.51241 0.369471 -0.532674 0.284304
49 0.19905 0.100112 0.00040977 0.116538 -3.52792 0.187149 0.174188 0.111013
52 0.198037 0.148967 0.0501635 0.315663 -3.48203 0.0616268 0.773475 0.585779
51 0.250491 0.101325 0.0518021 0.195972 -3.50221 -0.0450469 -0.668663 -0.638541
50 0.251394 0.150244 0.00256157 0.296294 -3.50762 -0.608773 0.136487 -0.306493
56 0.296738 0.150633 0.0503617 0.383883 -3.50071 0.779765 0.449151 0.193903
54 0.350802 0.148281 0.00109635 0.21245 -3.49764 -0.521541 0.502798 -0.477868
55 0.348447 0.101538 0.052584 0.370445 -3.51577 0.0528832 -0.353358 0.26783
60 0.398417 0.147891 0.0470613 0.577006 -3.49997 0.494827 0.584357 0.829695
58 0.449187 0.150724 1.0006 0.182859 -3.49948 -0.384317 -0.767966 -0.0219689
59 0.449943 0.097528 0.0508085 0.249147 -3.50874 -0.345611 0.796878 -0.361492
64 0.495524 0.150533 0.049658 0.314835 -3.51436 0.571959 0.207793 0.119742
63 0.547018 0.100356 0.0487822 0.166446 -3.52201 0.248447 0.203113 0.0496238
67 0.648039 0.0992899 0.0486656 0.246889 -3.51105 -0.00124809 0.387778 0.257023
68 0.599169 0.149754 0.0477199 0.365254 -3.48611 0.362172 -0.523976 0.582315
72 0.700863 0.152035 0.0498718 0.427331 -3.51511 -0.339916 -0.278837 0.223596
71 0.750844 0.099972 0.0515532 0.189987 -3.51562 -0.0744618 -0.218927 -0.396297
73 0.80147 0.100551 1.00115 0.349142 -3.49313 -0.210606 0.130158 -1.10799
76 0.79991 0.149672 0.0485126 0.304141 -3.50313 -0.159981 -0.549555 -0.011604
75 0.851415 0.100119 0.0493986 0.209209 -3.51478 0.0274784 -0.402353 0.377148
77 0.902391 0.10018 0.00216114 0.188929 -3.49955 -0.091289 -0.631897 -0.654708
80 0.902095 0.148571 0.0497721 0.210932 -3.49608 0.0593742 0.468408 0.332037
44 0.999882 0.148014 0.0526866 0.409673 -3.48938 0.254981 0.388279 -0.22705
78 0.953143 0.149179 0.00278855 0.255834 -3.51655 -0.20543 0.202768 -0.296491
79 0.948788 0.100308 0.0532323 0.436544 -3.49609 0.410321 -0.490221 -0.32036
83 0.0504488 0.19689 0.0483411 0.591635 -3.5094 -0.116185 0.716563 0.345479
84 0.000824969 0.249014 0.0504652 0.125968 -3.4857 0.139058 -0.00997219 -0.0444153
85 0.100932 0.201403 0.00135658 0.380194 -3.50268 -0.673668 -0.739526 -0.696933
87 0.146857 0.199888 0.0499874 0.340489 -3.48099 1.23292 0.799683 0.423071
86 0.144105 0.251553 0.999881 0.814833 -3.49465 1.36838 -0.477299 0.247239
88 0.101881 0.249284 0.0525717 0.490397 -3.49717 -1.32187 0.825727 -0.738683
89 0.200154 0.203123 0.00164653 0.457869 -3.49574 -0.564389 -0.756739 0.0602112
91 0.24775 0.20026 0.052426 0.24844 -3.52152 0.305452 0.31822 -0.15815
92 0.196287 0.250583 0.0516197 0.210597 -3.51966 0.0568979 -0.035434 -0.33625
96 0.298826 0.255331 0.0485046 0.641986 -3.49212 0.156292 -0.93506 0.415067
95 0.35015 0.200724 0.0491542 0.0912677 -3.52119 -0.199575 0.00849594 0.274612
94 0.349688 0.251039 -0.00085931 0.139155 -3.52147 0.320613 0.0723268 0.231886
100 0.401304 0.250104 0.0515405 0.297089 -3.50259 -0.381994 0.0657182 -1.02588
99 0.446751 0.201097 0.0487288 0.290531 -3.50869 0.566164 -0.639722 0.470877
103 0.549502 0.200709 0.0515325 0.214874 -3.51819 -0.224659 -0.10356 -0.263977
107 0.646999 0.201784 0.0518057 0.725908 -3.49507 0.751436 -0.703619 -0.411741
106 0.646724 0.249167 0.99772 0.51956 -3.51639 0.752155 -0.240218 0.261457
108 0.598655 0.25318 0.0479766 0.627389 -3.49818 -0.00757592 -0.887145 0.648989
109 0.700314 0.197703 0.99777 0.476232 -3.49692 0.00472823 0.765268 0.424788
111 0.75034 0.19956 0.0510001 0.474681 -3.49697 -0.3973 0.0113122 -0.476637
112 0.699817 0.250316 0.0458316 0.521919 -3.51413 0.124172 -0.335523 0.324083
113 0.801588 0.196419 1.00028 0.339647 -3.50591 -0.050795 0.384326 -0.273628
116 0.803271 0.249501 0.0487967 0.223202 -3.51708 0.326893 -0.0455187 -0.211627
115 0.852347 0.198501 0.0498474 0.172016 -3.49537 -0.148609 0.854848 -0.432435
120 0.902655 0.254089 0.0522239 0.70055 -3.5173 -0.564146 -0.529779 -0.459245
119 0.953501 0.203149 0.0510778 0.682764 -3.50698 -0.552666 -0.692446 0.0505661
82 0.0489032 0.247515 0.00126881 0.356431 -3.51129 0.471622 0.987655 -0.165619
123 0.0496394 0.296928 0.0524475 0.503681 -3.49659 0.0960595 0.75708 -0.155418
125 0.0957404 0.301761 0.00125078 0.495937 -3.48153 0.661183 -1.23272 0.617013
127 0.147956 0.300339 0.0501734 0.0883783 -3.52029 0.0666731 -0.116269 -0.00139113
129 0.197184 0.302534 0.999372 0.320152 -3.51111 0.304776 -0.647849 0.353847
131 0.248571 0.299297 0.0488363 0.279896 -3.50357 -0.103847 0.575993 0.0495565
133 0.299108 0.301139 0.995332 0.635183 -3.51194 0.126785 0.186295 0.773148
135 0.352413 0.302014 0.0474407 0.381343 -3.50204 -0.459073 -0.308463 0.467554
137 0.399563 0.302605 1.00025 0.176361 -3.4814 0.439297 -1.20504 -0.222214
98 0.451229 0.251889 0.000278956 0.281047 -3.52194 -0.769822 -0.121773 -0.0831766
139 0.450908 0.301728 0.0513907 0.162796 -3.52052 -0.221275 -0.181202 -0.319081
104 0.499555 0.248341 0.0489725 0.467957 -3.512 -0.0296369 0.901405 0.151468
141 0.499667 0.30178 -0.00156401 0.238639 -3.51526 -0.079592 -0.352414 0.813218
102 0.549926 0.252511 0.00247419 0.48814 -3.49969 -0.0487096 -0.544092 -0.805827
143 0.548303 0.302203 0.0499129 0.305562 -3.517 -0.0768455 -0.349757 0.205328
145 0.600661 0.300833 0.998396 0.186647 -3.50926 -0.218445 -0.0624783 0.26613
147 0.650978 0.299515 0.0493666 0.121225 -3.51337 -0.0605446 0.238182 0.270893
149 0.699089 0.299359 1.00174 0.345777 -3.5166 0.175943 0.119617 -0.415814
151 0.752323 0.300616 0.0494162 0.138955 -3.51536 0.047532 -0.325439 -0.0357034
153 0.801966 0.298582 0.999585 0.235724 -3.52434 0.0238508 0.174757 -0.00731101
114 0.855755 0.250669 -0.000961415 0.637158 -3.49869 -1.06663 -0.495626 0.519511
155 0.849463 0.302452 0.050727 0.614531 -3.49004 0.708049 -0.240526 -0.822015
118 0.948354 0.249366 -0.00138397 0.761774 -3.50245 1.151 0.386083 0.639742
159 0.954437 0.300272 0.0526911 0.613572 -3.50429 -0.392286 -0.027624 -0.817819
124 1.00175 0.351044 0.0509578 0.132099 -3.5167 -0.139211 0.341029 -0.174593
163 0.0471442 0.402914 0.0514874 0.64771 -3.50007 0.706378 -0.5317 0.0540247
126 0.146842 0.351011 -0.00166525 0.353029 -3.47752 0.31657 0.48114 1.07297
128 0.100248 0.348637 0.0495358 0.375068 -3.51108 -0.320412 0.255461 0.0848138
165 0.0975371 0.400813 1.00053 0.144375 -3.50495 0.365079 0.304681 -0.0626973
167 0.148271 0.403568 0.0533478 0.89561 -3.47845 0.0275587 -0.896533 -1.44885
132 0.197329 0.350098 0.0494366 0.131502 -3.52483 0.161417 0.278196 0.143791
169 0.197283 0.399308 0.000301323 0.353947 -3.51757 0.192552 0.314671 -0.0305317
171 0.249731 0.400552 0.0476059 0.270968 -3.51079 0.241927 -0.232122 0.594838
130 0.248343 0.351747 0.999728 0.170696 -3.52079 0.0307813 -0.535531 0.132668
136 0.302281 0.34966 0.0464621 0.563762 -3.51371 -0.650151 0.0574094 0.480383
134 0.354388 0.35124 1.00115 0.985583 -3.47426 -1.18916 -0.373323 -1.21171
140 0.399986 0.352755 0.0507298 0.249224 -3.48411 0.491596 -0.133448 0.0157754
175 0.348901 0.39972 0.0517467 0.454911 -3.50034 0.129135 0.606183 -0.741083
179 0.451508 0.399506 0.0528865 0.438837 -3.46582 -1.32639 0.993278 -0.8614
144 0.497622 0.351334 0.0515695 0.246087 -3.49627 0.2224 -0.541663 -0.522017
142 0.549464 0.348297 -7.04319e-05 0.206283 -3.50761 0.0448416 0.750286 -0.0722849
181 0.496126 0.399034 1.00357 0.689716 -3.4937 1.33051 -0.0238577 -1.51196
183 0.54948 0.396879 0.0518555 0.443062 -3.50752 0.378228 0.350897 -0.564238
146 0.651506 0.35035 -0.00072117 0.110605 -3.52038 0.157858 -0.246469 0.0792633
148 0.600997 0.347822 0.0468864 0.496676 -3.50273 0.0463335 0.545396 0.794009
187 0.650958 0.399713 0.051185 0.172443 -3.50131 0.272084 0.589746 -0.550598
152 0.704603 0.350118 0.0496347 0.419941 -3.50791 -0.83769 0.140709 0.351932
189 0.699787 0.399458 1.00127 0.184868 -3.52015 0.231588 0.0861237 0.100544
191 0.751821 0.403791 0.0507566 0.620786 -3.51381 -0.0268325 -0.82366 -0.464169
150 0.750852 0.34828 0.00263944 0.47821 -3.49943 0.235907 0.484459 -0.724817
156 0.804076 0.352018 0.0465413 0.586909 -3.5172 -0.544919 0.237717 0.784093
193 0.799965 0.400433 0.999396 0.249799 -3.5168 0.174225 0.176107 0.335877
160 0.90149 0.349475 0.050246 0.330006 -3.50933 0.188512 0.0799317 -0.761093
195 0.854816 0.401012 0.0492545 0.4016 -3.51237 -0.560896 -0.304641 -0.160878
197 0.90076 0.400816 1.00062 0.289938 -3.49797 0.339082 -0.12282 -0.859521
158 0.953974 0.350183 1.00016 0.209195 -3.51345 -0.594983 -0.0509016 -0.29017
199 0.953378 0.40276 0.0468239 0.634418 -3.49841 -0.858699 -0.356165 0.792578
162 0.0512702 0.45136 1.00199 0.178257 -3.50477 0.0982742 -0.234247 -0.848129
203 0.0528403 0.501476 0.0518623 0.328926 -3.45616 -0.220684 0.443988 0.0245203
168 0.0985409 0.451021 0.0510454 0.188787 -3.51516 0.16778 -0.0166846 -0.0152237
172 0.202193 0.448852 0.0479362 0.712698 -3.47225 -0.19911 1.54769 0.342283
170 0.250681 0.450317 0.00109258 0.190964 -3.51281 0.163475 0.175303 -0.00424552
176 0.302363 0.45169 0.050747 0.285044 -3.50124 -0.765031 -0.248128 0.0990052
211 0.252524 0.501526 0.0513627 0.247319 -3.52116 -0.529893 -0.281868 0.24801
213 0.297514 0.501981 -0.000787228 0.372466 -3.52057 0.356125 0.110394 0.46641
180 0.400927 0.450402 0.0507407 0.142373 -3.52283 -0.0123875 -0.0368295 -0.100152
184 0.501218 0.447969 0.0535683 0.357935 -3.51498 -0.0948316 0.277772 -0.942722
223 0.546897 0.499509 0.0488437 0.369973 -3.50478 0.828235 0.750955 0.992506
188 0.597032 0.450311 0.0467542 0.754767 -3.51928 0.297261 -0.0918847 0.54187
227 0.647243 0.497178 0.0525895 0.702755 -3.49109 0.538087 0.888433 -0.3718
192 0.701481 0.450568 0.0512006 0.299896 -3.50989 -0.64413 -0.32227 -0.325764
196 0.805079 0.450316 0.0524209 1.00961 -3.44756 -1.21796 -0.298231 -1.38137
194 0.849167 0.451495 -0.000713776 0.219691 -3.50701 0.572925 -0.960446 -0.145717
200 0.898636 0.454436 0.0491821 0.735282 -3.51138 0.592734 -0.372645 -0.131925
235 0.848849 0.501999 0.0507424 0.374801 -3.49551 0.327532 0.497096 -0.177553
237 0.901162 0.501745 0.998652 0.219722 -3.50336 -0.414176 -0.393299 0.560201
164 0.000589748 0.44887 0.0507059 0.41939 -3.48199 0.639628 0.787279 -0.926874
198 0.95164 0.452598 -0.00186132 0.329671 -3.51227 -0.207925 -0.276195 0.51838
201 0.00200127 0.501877 1.00139 0.237774 -3.50353 0.383543 0.117388 -0.371212
204 0.002405 0.551616 0.0489668 0.286477 -3.52613 0.066189 0.0195409 0.361028
205 0.0995239 0.501356 1.00184 0.279812 -3.49921 -0.272932 0.386408 -0.75011
207 0.146877 0.502262 0.0499989 0.399173 -3.50179 0.957117 -0.144207 -0.134718
208 0.0978788 0.554408 0.0493606 0.422326 -3.50523 0.28933 -0.783987 0.271143
212 0.200968 0.552953 0.0512377 0.176814 -3.51152 -0.328638 -0.311374 -0.0124075
210 0.248756 0.552007 0.00345667 0.38572 -3.51544 0.518926 -0.136289 -0.941029
216 0.298109 0.553123 0.0514822 0.342019 -3.49879 0.353798 -0.850528 0.123409
215 0.349564 0.498974 0.0509177 0.416873 -3.50184 0.239079 0.876669 -0.05303
220 0.398844 0.55319 0.055781 0.617107 -3.46761 0.533461 -0.773332 -0.885384
218 0.449806 0.551588 0.00477864 0.326304 -3.51892 -0.126658 -0.160369 -0.314802
219 0.453864 0.498921 0.0518244 0.619211 -3.51048 -0.992456 0.382416 -0.042274
224 0.498397 0.552538 0.0523939 0.271692 -3.51001 0.197817 -0.410733 -0.322176
221 0.500692 0.49975 0.00223647 0.181204 -3.47881 -0.170454 -0.804738 -0.455121
222 0.549666 0.550909 1.00067 0.112999 -3.51248 -0.360964 0.0496822 -0.391222
226 0.646632 0.549902 0.00321847 0.511905 -3.5096 0.297765 0.0471174 -0.401087
228 0.596412 0.54942 0.0509982 0.254253 -3.52592 0.197656 0.336623 0.0767591
232 0.699704 0.55145 0.0502035 0.272952 -3.47526 -1.02564 0.335989 0.197885
230 0.750241 0.545817 1.00272 1.11091 -3.45885 -0.654124 0.268021 -0.718836
231 0.746443 0.500476 0.0504813 0.553583 -3.49382 1.00788 -0.45952 -0.0854832
236 0.798507 0.551032 0.0476769 0.333088 -3.50512 0.16089 0.033734 0.546946
234 0.847569 0.547426 -0.000334886 0.435863 -3.5194 0.366978 0.356919 0.0961031
240 0.900068 0.55098 0.0505118 0.118394 -3.52213 0.0642999 -0.414306 -0.129433
239 0.954623 0.499786 0.050748 0.51502 -3.51389 -0.529844 0.289078 -0.0243434
243 0.0523228 0.602717 0.0526047 0.465728 -3.48618 -0.494059 0.263562 -0.506984
247 0.150902 0.601436 0.0501901 0.198912 -3.52533 -0.145744 0.107811 -0.148569
248 0.100472 0.654127 0.0527458 0.411726 -3.50017 -0.0559104 -0.799513 -0.455034
252 0.201435 0.652356 0.0509954 0.226316 -3.50202 -0.214769 -0.371896 -0.437418
251 0.252489 0.602507 0.0513109 0.152763 -3.5082 -0.582063 -0.0364395 -0.112452
256 0.302706 0.650724 0.0521628 0.249562 -3.48252 -0.240233 0.971189 0.399302
255 0.350244 0.599619 0.0533038 0.240163 -3.50243 0.173457 0.21175 -0.137
257 0.400185 0.599598 0.00236605 0.252819 -3.51632 0.244315 0.273378 -0.28556
260 0.400214 0.651191 0.05047 0.318909 -3.50788 -0.12252 0.018054 0.653551
259 0.451302 0.605197 0.0519117 0.550343 -3.51742 -0.179945 -0.541725 0.0915208
261 0.496597 0.602317 1.00159 0.377876 -3.50548 0.942016 -0.536823 0.0240835
264 0.501076 0.652798 0.0515225 0.173532 -3.51695 0.0140666 0.0423778 0.3218
262 0.545636 0.650481 -0.000704106 0.765499 -3.5094 0.440114 0.318683 0.32987
263 0.549065 0.6021 0.0504516 0.123498 -3.51212 -0.0194625 0.182996 0.225754
265 0.595752 0.60232 0.00114842 0.592575 -3.50383 0.620853 -0.425649 0.0553105
266 0.651241 0.649679 -0.000856351 0.343157 -3.50618 0.0895594 -0.198865 0.362912
267 0.647404 0.601497 0.0485582 0.345428 -3.51619 0.531407 -0.164983 0.43687
268 0.60063 0.649926 0.0521981 0.378212 -3.50419 -0.556639 0.612335 -0.677574
269 0.701191 0.597284 0.998712 0.528397 -3.52385 -0.104089 0.16376 -0.099562
272 0.701044 0.64696 0.049955 0.545435 -3.50173 -0.562833 0.551827 0.152815
271 0.748182 0.601649 0.0490152 0.289708 -3.50109 0.443096 -0.357308 0.442041
276 0.799846 0.650382 0.0519602 0.165574 -3.50835 0.228068 -0.000582146 0.508669
275 0.849356 0.599808 0.0492839 0.163669 -3.52435 -0.131957 -0.0642137 -0.132698
277 0.901056 0.599114 1.00064 0.138593 -3.51868 -0.325112 0.099248 -0.0593875
280 0.898315 0.650244 0.0503724 0.148079 -3.51986 0.310682 -0.0967921 -0.159554
244 0.000594419 0.649757 0.0497285 0.200651 -3.52103 -0.332577 0.241443 0.308816
278 0.952582 0.651658 0.997943 0.489787 -3.50023 -0.556683 -0.456049 0.716006
279 0.95159 0.599748 0.0481776 0.272536 -3.50575 0.018306 0.638799 0.523002
283 0.0494524 0.700585 0.0480248 0.308698 -3.51213 -0.0327791 0.331427 0.556625
282 0.0502765 0.75021 0.999845 0.198076 -3.52219 -0.274499 0.225129 0.0265157
287 0.151179 0.705859 0.0509916 0.758358 -3.50357 -0.58536 -0.675565 0.376089
289 0.19659 0.701939 0.00296132 0.841529 -3.47994 0.80356 -0.362216 -0.419112
292 0.201596 0.750106 0.053915 0.513559 -3.49708 -0.366955 0.656045 -0.10834
291 0.247331 0.701703 0.0484856 0.905054 -3.4875 1.36782 -0.0784855 0.979661
295 0.352484 0.700918 0.0513677 0.470789 -3.48421 -1.17251 -1.07963 0.478205
297 0.396367 0.701395 0.00116332 0.484019 -3.49836 0.887723 0.153754 0.192069
294 0.351082 0.750093 0.00315835 0.549899 -3.46214 -0.515047 1.31879 -0.981411
300 0.39683 0.752397 0.0510603 0.255808 -3.4916 0.936393 -0.905556 0.606663
299 0.447962 0.700763 0.0527328 0.22569 -3.52287 -0.0774207 0.431597 0.0153249
301 0.499573 0.703221 0.00405418 0.533102 -3.51121 -0.0503009 -0.305432 -1.02882
303 0.549842 0.700962 0.0500042 0.145109 -3.50993 0.203403 0.0345569 0.36516
302 0.550878 0.751138 0.00119642 0.153319 -3.51027 0.129128 0.250264 -0.505198
305 0.598918 0.70288 0.00145062 0.423256 -3.50209 0.10188 -0.550763 0.187988
307 0.650733 0.700199 0.0484269 0.261371 -3.46676 -0.305454 0.0830253 1.04856
311 0.752124 0.698165 0.0527745 0.462321 -3.5138 -0.695654 0.409396 -0.668921
312 0.697634 0.747198 0.0496202 0.591658 -3.48414 0.803944 1.05873 -0.121897
315 0.847813 0.70074 0.050982 0.23496 -3.51572 0.160141 -0.162212 0.294879
281 1.00134 0.697613 0.998201 0.570215 -3.49082 -0.0449406 0.888875 0.34741
319 0.950569 0.700967 0.050775 0.208158 -3.50272 -0.0892702 -0.782679 -0.0956939
284 0.998311 0.748203 0.0506924 0.304117 -3.49329 0.425333 0.470915 0.0187137
323 0.047571 0.799967 0.0512767 0.240919 -3.5157 0.393594 0.0691491 0.192982
288 0.0997535 0.754424 0.0501249 0.304498 -3.51603 -0.0862669 -0.812362 0.483337
327 0.151405 0.802836 0.0521321 0.22343 -3.51717 0.0197702 -0.288506 -0.256921
296 0.302795 0.752933 0.0465332 0.969666 -3.47332 -0.946303 -0.921454 1.30713
331 0.25168 0.800513 0.0482971 0.245159 -3.49806 -0.336418 0.202934 0.448338
333 0.299917 0.802452 0.999254 0.120511 -3.51305 0.0312182 -0.181469 -0.0972456
335 0.348272 0.804051 0.0511471 0.515289 -3.505 0.688289 -0.919293 -0.443966
298 0.448865 0.75133 0.00261575 0.176475 -3.51895 -0.310166 -0.199955 -0.299328
339 0.449596 0.799976 0.0511013 0.0865983 -3.51416 -0.291241 -0.278803 -0.0259506
304 0.502017 0.752485 0.0498355 0.345044 -3.51016 -0.222478 -0.283763 0.367361
343 0.553266 0.799286 0.0517267 0.465728 -3.51811 -0.087553 0.226552 -0.211232
308 0.601818 0.750367 0.0514785 0.210478 -3.52307 -0.355095 -0.0788028 -0.127979
347 0.651308 0.799334 0.0468448 0.251347 -3.50625 -0.0209516 -0.329949 0.632726
351 0.749535 0.800287 0.045994 0.397323 -3.49822 0.190603 -0.171839 1.00802
316 0.799725 0.750821 0.0495491 0.166685 -3.51681 0.0409001 -0.127599 -0.429449
320 0.900495 0.749023 0.0515894 0.238616 -3.51487 -0.227729 0.33335 0.385499
355 0.850783 0.800174 0.0490674 0.179806 -3.51733 -0.233226 0.0151348 -0.196774
321 1.00028 0.79869 0.00311078 0.476472 -3.50434 -0.228488 0.555787 -0.287838
318 0.949132 0.749995 0.00533196 0.719293 -3.48936 0.263342 0.106439 -1.21022
359 0.949245 0.804759 0.0507797 0.850488 -3.51108 -0.0326973 -0.96678 0.0647668
322 0.0479001 0.851764 0.000302017 0.360174 -3.51078 0.135713 -0.463136 0.182709
324 0.00213901 0.852821 0.0528215 0.588068 -3.49566 -0.130543 -0.477001 -0.804972
363 0.0508434 0.903323 0.0515181 0.332869 -3.52424 -0.0455573 -0.35502 -0.297773
328 0.0993218 0.851413 0.0541519 0.51109 -3.4975 -0.240451 -0.195044 -1.13301
365 0.0992017 0.89766 0.00061872 0.515116 -3.51429 0.163762 0.508599 0.225382
367 0.1515 0.898525 0.0502682 0.393327 -3.47366 -0.19286 1.29608 -0.361751
332 0.199433 0.8532 0.0514518 0.382956 -3.49106 0.73889 -0.524708 -0.478451
371 0.251568 0.902389 0.052636 0.588312 -3.463 -0.68682 -0.286193 -1.44031
330 0.249406 0.853805 0.998686 0.496433 -3.50078 -0.249308 -0.818264 0.431479
336 0.298898 0.849625 0.0480591 0.339166 -3.51821 -0.153444 0.397023 0.460425
334 0.350643 0.851864 -0.00117147 0.264954 -3.52231 -0.0540727 -0.0864867 0.335634
340 0.400172 0.848951 0.0499722 0.289155 -3.49155 -0.660749 0.216664 0.382417
375 0.347635 0.90029 0.0490621 0.234188 -3.51844 0.523316 -0.392751 0.180633
377 0.40089 0.89967 0.999571 0.197777 -3.51379 -0.032211 -0.121019 -0.273994
379 0.447449 0.897595 0.0520571 0.551844 -3.49158 0.898094 0.686167 -0.321088
344 0.498506 0.846004 0.050077 0.431351 -3.51187 0.455458 0.425219 0.125476
383 0.548441 0.898371 0.0523727 0.462745 -3.50411 0.462251 -0.362648 -0.580117
348 0.60174 0.851829 0.0463507 0.633219 -3.50285 -0.44994 -0.214654 0.718471
387 0.650456 0.899777 0.0498585 0.252853 -3.49143 0.630985 0.144959 -0.840552
352 0.700368 0.848172 0.0483645 0.21998 -3.52024 -0.314259 0.525352 -0.273146
391 0.751804 0.900574 0.0494911 0.268057 -3.51531 -0.482988 -0.176591 0.202537
356 0.80156 0.850575 0.0487571 0.165764 -3.50626 -0.0739456 -0.452773 0.0817687
360 0.897562 0.851542 0.0498229 0.357223 -3.51432 0.176069 -0.106639 -0.105027
395 0.850917 0.900531 0.0508621 0.26665 -3.51448 -0.174798 0.0385645 -0.69738
399 0.953097 0.897902 0.0481683 0.588915 -3.50453 -0.692695 0.677266 0.75705
3 0.0464971 0.00124259 0.0524243 0.391092 -3.49799 0.449736 -0.294614 0.00671586
364 0.999722 0.950018 0.052457 0.137091 -3.50986 0.250145 -0.0230454 -0.20519
5 0.0975264 0.999214 0.00202635 0.38704 -3.51629 0.237524 0.490244 0.197106
7 0.152126 0.0019771 0.0487031 0.397764 -3.51694 -0.526912 -0.224981 -0.0721768
366 0.151531 0.950196 -0.00313468 0.613317 -3.47919 0.0386935 -0.317838 1.47895
368 0.103123 0.950158 0.0494441 0.323248 -3.51176 -0.251725 0.252613 0.00221124
11 0.253859 -0.00326761 0.0485885 0.798628 -3.45194 -1.16262 1.81199 1.1601
372 0.202252 0.954088 0.0501754 0.639888 -3.50258 -0.652097 -1.55045 -0.279889
13 0.302252 1.00019 0.998229 0.147348 -3.51653 0.141941 -0.108756 -0.14253
370 0.252765 0.950508 0.997677 0.199174 -3.51636 -0.0466311 -0.0729289 0.161013
376 0.301726 0.950071 0.0502273 0.205005 -3.48551 0.262058 0.332999 -0.301901
15 0.35189 1.00163 0.0518071 0.393612 -3.47485 -0.41519 -1.34112 -0.773281
380 0.401874 0.946605 0.0493557 0.415589 -3.50899 -0.576955 0.670579 0.384406
21 0.502474 0.999895 -0.000292251 0.377718 -3.50358 -0.878071 -0.516163 0.00211922
378 0.452496 0.950311 1.00151 0.586732 -3.49304 -0.644178 -1.08569 -0.611807
384 0.50015 0.948728 0.0468978 0.701545 -3.47515 -0.278763 -0.224583 1.78335
23 0.547497 -0.00256506 0.0516054 0.432879 -3.50737 0.718053 0.618323 -0.809161
388 0.600743 0.946395 0.0520027 0.54857 -3.50326 -0.418019 0.300478 -0.673488
392 0.700559 0.949721 0.0480358 0.129762 -3.5255 -0.0805155 -0.167334 0.0867907
31 0.749044 1.0015 0.048558 0.260071 -3.49777 0.344809 -1.0399 -0.512358
396 0.79795 0.949487 0.0472481 0.510351 -3.50966 0.358452 0.394543 -0.116444
400 0.902338 0.949732 0.0473883 0.260401 -3.50603 -0.384938 0.0738923 0.914339
39 0.950571 -0.000629691 0.0522087 0.251643 -3.47231 -0.122361 0.214979 -1.24264
398 0.950953 0.948149 0.998836 0.222137 -3.50401 -0.122277 0.767502 0.350877
402 0.0472257 0.0486914 0.103357 0.346214 -3.49653 0.458335 0.208247 -0.74845
404 0.998773 0.048733 0.153352 0.294121 -3.5075 0.188784 0.0781684 -0.475703
406 0.149534 0.051146 0.102568 0.300965 -3.52305 0.113337 -0.0374022 -0.57004
408 0.0973301 0.0485877 0.149808 0.198172 -3.50855 0.417477 0.154597 0.276445
412 0.200969 0.0503328 0.150498 0.170197 -3.52368 -0.0968592 0.252341 -0.225385
410 0.248698 0.0514883 0.0990378 0.340678 -3.49429 -0.118365 -0.838794 -0.622662
413 0.298823 0.00151524 0.0999024 0.33094 -3.51643 0.94671 -0.380015 0.44424
416 0.300125 0.0523284 0.14775 0.428073 -3.49829 -0.0200588 -0.929197 0.48848
414 0.351029 0.0517476 0.102813 0.361123 -3.51851 -0.0209744 0.0967437 -0.25012
420 0.402904 0.0489012 0.149834 0.446071 -3.49013 -0.680497 0.40308 0.335764
418 0.445372 0.0480878 0.0996896 0.86828 -3.48242 0.939735 0.0147605 -0.287251
424 0.501046 0.0476911 0.150087 0.310398 -3.49307 -0.423581 0.589898 -1.06242
422 0.546596 0.0487711 0.0987077 0.160156 -3.52042 0.421374 0.0674134 0.0123869
423 0.54953 0.997866 0.150383 0.157202 -3.50642 0.452575 -0.0846978 -0.278112
425 0.598249 -0.000127988 0.096829 0.375 -3.49454 0.109199 0.0964095 0.635305
426 0.64572 0.0483343 0.0947999 0.89158 -3.50194 0.581103 0.136462 0.649925
428 0.599102 0.0476438 0.148456 0.229013 -3.51793 -0.370056 0.0286113 -0.193005
429 0.699054 0.000391581 0.0977443 0.2221 -3.52701 0.0439382 -0.204284 0.31559
432 0.700125 0.0481252 0.150781 0.535601 -3.50487 -0.326668 0.266493 -0.590135
430 0.749165 0.0484846 0.101627 0.458018 -3.51926 0.175269 0.146294 -0.451617
431 0.751058 -0.000602607 0.148756 0.216849 -3.51273 -0.292008 -0.257174 0.118451
433 0.801656 0.00219768 0.0943913 0.902055 -3.51222 -0.145112 -0.674425 0.574893
436 0.797598 0.0487616 0.149611 0.425109 -3.50098 0.321478 0.126949 0.338855
434 0.852763 0.0506067 0.0996808 0.254536 -3.51487 -0.189417 -0.248868 -0.164559
435 0.848948 0.00077661 0.145423 0.688556 -3.51552 0.0185576 -0.00578311 0.617249
437 0.902285 0.999462 0.102062 0.402208 -3.49928 -0.489888 -0.339653 -0.536169
440 0.900724 0.0509051 0.151096 0.152863 -3.51891 -0.0849399 -0.19741 -0.259066
438 0.950157 0.0499256 0.0993245 0.342392 -3.51763 0.0304563 0.107273 0.4439
441 0.00235413 0.097542 0.10259 0.396762 -3.49932 -0.948376 0.850105 0.329108
442 0.0520905 0.151731 0.102298 0.412852 -3.49915 -0.31544 -0.781862 0.447306
443 0.0496856 0.097071 0.152839 0.385601 -3.49672 0.091538 1.07326 -0.458237
445 0.0968508 0.0985748 0.10154 0.299809 -3.51599 0.587091 0.262451 -0.109826
446 0.148894 0.149132 0.102652 0.272561 -3.50732 0.144854 0.132004 -0.683548
447 0.147873 0.100271 0.149491 0.267394 -3.52266 0.260025 -0.144175 0.166148
448 0.101586 0.152348 0.149829 0.43977 -3.48362 -0.538723 -0.795404 0.382068
449 0.200578 0.101256 0.1005 0.11979 -3.52291 -0.250957 -0.306307 -0.0208778
452 0.201783 0.1484 0.149115 0.429046 -3.49801 -0.307287 0.273 0.019575
450 0.2477 0.151038 0.101369 0.242207 -3.50604 0.355074 0.169468 -0.407673
451 0.253291 0.099083 0.149058 0.816394 -3.46212 -0.828576 0.114901 0.230539
453 0.295941 0.102171 0.101282 0.535438 -3.47758 0.650549 0.168884 -0.43816
456 0.296667 0.155783 0.148432 1.11563 -3.48289 1.2395 -1.53232 0.0490111
454 0.353229 0.149881 0.0994643 0.638939 -3.50848 -0.864133 0.0297646 0.0743317
455 0.349233 0.103072 0.149585 0.197799 -3.50878 0.0812356 -0.039334 -0.133311
457 0.401956 0.0988974 0.100177 0.178868 -3.51266 -0.323753 0.293168 0.0253094
460 0.401425 0.151064 0.149314 0.205485 -3.5076 -0.21392 -0.0852766 0.0202385
458 0.449261 0.148941 0.100458 0.152408 -3.51027 -0.0676884 0.452313 -0.544481
459 0.451916 0.0964275 0.147732 0.593588 -3.50402 -0.234269 0.656695 0.334139
461 0.49957 0.100116 0.099297 0.166445 -3.48397 -0.302966 -1.10551 0.285508
464 0.500345 0.15034 0.147845 0.323536 -3.50718 -0.35229 -0.0957478 0.692904
462 0.546713 0.148828 0.0988653 0.224509 -3.50785 0.336481 0.764895 -0.105581
463 0.54613 0.0992802 0.147875 0.219415 -3.48201 0.103818 -0.0694821 1.25573
465 0.597532 0.0989159 0.100306 0.210076 -3.52236 -0.162108 0.21022 -0.405688
466 0.651283 0.147565 0.102927 0.846462 -3.48511 -0.678802 0.200473 -1.11611
467 0.647516 0.0950828 0.147236 0.576077 -3.46036 0.0680953 0.370215 -0.111977
468 0.594948 0.147799 0.150376 0.349765 -3.51754 0.760878 0.289825 -0.128207
469 0.700746 0.0974049 0.0984012 0.333959 -3.51545 -0.574934 -0.0127299 0.0950866
472 0.696883 0.147494 0.148897 0.314056 -3.45968 0.192674 0.681637 0.177178
471 0.750062 0.10204 0.147679 0.59754 -3.50602 -0.118907 -0.912378 0.326945
470 0.750304 0.145963 0.0995844 0.59486 -3.49529 -0.252607 0.866629 -0.149963
473 0.803289 0.0970713 0.100037 0.565817 -3.51681 -0.451569 0.174347 -0.286686
476 0.799777 0.149633 0.147115 0.238532 -3.50706 0.148333 0.208637 0.407711
474 0.849928 0.148647 0.0971522 0.160485 -3.51155 0.126279 -0.170092 0.515463
475 0.849615 0.0998434 0.150619 0.147069 -3.51474 -0.300416 0.0849993 -0.0500192
477 0.898624 0.100886 0.103285 0.653261 -3.50985 0.643752 -0.371809 -0.629846
480 0.898669 0.147832 0.147996 0.312294 -3.49762 0.0830682 0.582039 0.360217
444 0.000602018 0.147352 0.14938 0.31301 -3.53012 0.00621437 0.44526 0.343784
478 0.9531 0.149908 0.0982697 0.56814 -3.48696 -0.634907 -0.245957 0.88941
479 0.950783 0.0974215 0.151788 0.303777 -3.50309 -0.268678 0.54194 -0.711649
481 0.0039857 0.200986 0.103021 0.764228 -3.49094 -0.791412 -0.305457 -0.372958
483 0.0487728 0.201214 0.151275 0.224386 -3.50297 0.302805 -0.177668 0.122198
485 0.100631 0.200784 0.100369 0.19316 -3.51208 -0.224404 -0.158966 0.16319
487 0.148985 0.198282 0.151309 0.534127 -3.50099 0.179003 0.942316 0.0307422
486 0.147898 0.250565 0.102259 0.257693 -3.47826 0.448905 -0.512234 -0.742303
489 0.198054 0.204819 0.103759 1.01422 -3.45838 -0.416132 -1.45017 -1.12833
491 0.249935 0.203107 0.147193 0.407651 -3.48029 -0.278935 -0.292176 1.27876
492 0.199097 0.254973 0.148824 0.672563 -3.46968 0.0026313 -0.823303 0.541486
490 0.248075 0.250619 0.102455 0.513944 -3.49781 0.504503 0.526661 -0.752514
493 0.298565 0.201892 0.101063 0.247789 -3.47998 0.415191 0.250407 -1.07412
496 0.302198 0.252984 0.150394 0.484646 -3.50491 -0.520993 -0.426031 -0.259793
495 0.349288 0.19971 0.147549 0.277273 -3.49916 -0.0326732 0.00651448 -0.0673902
497 0.40029 0.199215 0.0994589 0.219404 -3.49608 -0.207015 -0.0764311 -0.637166
499 0.448579 0.201052 0.148424 0.308072 -3.51427 0.41683 -0.230934 0.25023
498 0.449271 0.2501 0.100125 0.166871 -3.50142 0.292019 0.29148 0.0413241
501 0.498145 0.203636 0.100478 0.469142 -3.50834 0.224148 -0.672988 -0.127312
503 0.549561 0.202198 0.150232 0.365388 -3.52034 0.00774666 -0.525088 -0.356342
502 0.550079 0.251501 0.102249 0.286467 -3.52103 -0.0210243 -0.251029 -0.487186