ITEM: TIMESTEP
3500
ITEM: NUMBER OF ATOMS
4000
ITEM: BOX BOUNDS pp pp pp
3.0777074798656816e+00 3.3022292520134243e+01
-1.8578537708522944e+00 3.7957853770852353e+01
-1.6004663471505687e+00 3.7700466347150567e+01
ITEM: ATOMS id xs ys zs c_csym c_peratom fx fy fz
3 0.0539156 0.00534941 0.0487319 5.2915 -3.49231 -0.557587 0.799785 0.715201
4 -0.000897089 0.0567591 0.0523709 5.11036 -3.47973 -0.168045 -0.00562148 -0.332359
1 7.23289e-05 0.0159134 0.00218925 5.17884 -3.50994 -0.0154281 0.610474 0.0347468
5 0.102851 0.0183421 0.00306855 5.2123 -3.48153 -0.432301 -0.271979 -1.36929
8 0.097712 0.0580031 0.051967 5.1519 -3.48545 0.665141 0.242823 -0.614594
7 0.152956 0.00926824 0.0477879 0.618449 -3.46461 0.160473 -0.872546 -0.179211
6 0.152154 0.0691384 6.07148e-06 5.15628 -3.49745 -0.178982 -0.480988 0.0434277
9 0.202262 0.0165925 -0.000921131 5.64825 -3.4909 -0.52511 0.39022 0.271993
12 0.200782 0.0615709 0.0499088 5.26822 -3.50203 0.297761 -0.928651 -0.24037
16 0.299878 0.0599316 0.0485307 0.174021 -3.50187 -0.1465 -0.759535 -0.504084
10 0.251266 0.0673954 -0.000545772 0.0946025 -3.50846 0.0387065 -0.043594 -0.0789808
11 0.249332 0.00877501 0.0486913 0.103708 -3.48673 0.275164 0.126087 0.387225
13 0.300001 0.0145725 -0.00225373 0.32802 -3.50314 0.169272 0.605851 0.93193
17 0.397445 0.0145714 0.00177798 5.06871 -3.50874 0.28316 0.149235 -0.448176
15 0.346628 0.00834223 0.0505675 5.37067 -3.48849 0.351046 -0.171883 -0.601801
20 0.39785 0.0584215 0.0493636 4.80322 -3.50849 0.362773 0.0991912 0.100986
19 0.450133 0.0116111 0.0494731 5.22796 -3.49364 -0.099793 -0.645825 -0.208472
24 0.504171 0.0601711 0.0520527 4.73532 -3.47427 -0.503421 -0.136982 -1.22385
23 0.548497 0.00769659 0.0502024 5.46758 -3.49165 0.286521 0.357029 0.117668
22 0.551209 0.0681911 -0.00117011 0.0801514 -3.50539 -0.194184 -0.227053 -0.0394626
28 0.602849 0.0595447 0.0455656 4.90655 -3.49438 -0.0446307 -0.138972 0.707368
25 0.600951 0.0190683 -0.000651102 5.58522 -3.50596 -0.058691 -0.373628 -0.175732
27 0.649791 0.00680551 0.0525256 5.2795 -3.4829 0.235787 0.449448 -0.845817
32 0.702999 0.0605084 0.0467551 5.49401 -3.48268 -0.431257 -0.498567 0.466427
31 0.753236 0.00907303 0.0517535 4.64918 -3.50004 -0.534724 0.0523037 -0.470399
30 0.754685 0.0683761 0.00201194 5.27883 -3.49683 -0.171607 0.00787865 -0.684003
33 0.8023 0.0180899 -0.00108326 0.282849 -3.49525 0.167697 0.208472 0.7495
36 0.799227 0.0595088 0.0512886 4.96281 -3.50133 0.348109 -0.495527 -0.270522
35 0.854738 0.00774003 0.0511953 5.11584 -3.47632 -1.07903 0.509022 -0.237109
40 0.903628 0.0576366 0.0509262 4.94962 -3.49883 -0.388824 0.666527 0.350999
39 0.950227 0.00793094 0.0518705 5.37411 -3.50206 -0.0840123 0.0398808 -0.34012
43 0.0456413 0.106737 0.0544647 4.47565 -3.47922 0.410573 0.286114 -1.17666
47 0.151113 0.107589 0.0495743 5.407 -3.50684 -0.431774 0.495283 0.242084
45 0.0982891 0.118075 0.001527 5.68228 -3.50299 -0.33373 -0.434519 0.138678
49 0.202628 0.117021 -0.000263942 0.235713 -3.49836 -0.101928 -0.235439 -0.00923424
51 0.252485 0.112002 0.0476225 5.47859 -3.44317 -0.768793 -1.39845 0.0863512
53 0.305522 0.119481 -0.00046977 4.88822 -3.4585 -0.312874 -0.407036 -0.535527
55 0.349587 0.109523 0.0503456 5.56219 -3.51504 0.332557 -0.503905 -0.55197
59 0.452489 0.108751 0.0524638 4.96461 -3.49092 -0.242185 -0.431913 -0.969362
61 0.499463 0.117289 -0.00240273 4.66346 -3.50861 0.0699122 -0.104772 0.388805
63 0.551032 0.108713 0.046578 4.81282 -3.50321 0.166803 0.576466 0.740648
67 0.653268 0.107478 0.0471566 5.38223 -3.50412 -0.320977 0.243114 0.270329
69 0.703544 0.11473 -0.000182827 5.1414 -3.50192 -0.0890494 0.609398 -0.251906
71 0.751275 0.110351 0.0510781 0.343821 -3.50795 0.11345 -0.196527 -0.159312
75 0.849451 0.109456 0.051162 0.231286 -3.50066 0.502116 -0.139395 0.484583
73 0.803937 0.119792 0.0005849 5.34102 -3.49203 -0.178519 -0.532789 -0.0336469
77 0.899487 0.119231 0.000814474 0.153526 -3.50965 -0.243425 -0.0176684 0.328259
79 0.949138 0.110698 0.0505675 0.382226 -3.47265 0.1445 -0.955862 0.388004
41 0.998305 0.118476 0.0014279 0.133527 -3.50602 0.0787043 -0.0835551 0.140483
83 0.0507076 0.205713 0.048011 0.449508 -3.4882 -0.257507 0.514453 0.628533
42 0.047595 0.168741 -0.00143662 4.99453 -3.45758 0.258626 -0.347707 0.558635
48 0.0969963 0.156862 0.0514551 5.15442 -3.48531 0.383725 -0.0492531 -0.138438
46 0.148099 0.164462 0.00290606 4.98077 -3.4834 0.127733 0.625129 -0.448586
87 0.151039 0.207676 0.0500961 0.157821 -3.51411 -0.15252 -0.280609 0.0368808
85 0.0976172 0.21658 0.00226881 0.31573 -3.50203 0.638186 -0.141052 -0.599672
52 0.203327 0.158872 0.049233 4.86062 -3.50628 -0.679073 -0.156546 0.254906
91 0.251042 0.208132 0.0504043 0.27981 -3.46769 0.204007 -0.233191 0.0103069
56 0.296387 0.156285 0.0493675 5.1014 -3.40785 1.58704 1.37073 0.591806
54 0.356732 0.169869 5.51821e-05 4.89138 -3.43582 -0.962404 -1.50675 -0.0557741
60 0.398721 0.155238 0.0515933 4.89374 -3.49134 0.35895 0.834404 -0.0581859
95 0.348512 0.207784 0.0480869 5.45486 -3.46177 0.366855 -0.00020638 0.861104
58 0.446464 0.164658 0.000782306 4.75268 -3.47465 0.522888 0.473548 0.522817
99 0.454878 0.209231 0.0518023 5.28981 -3.46801 -0.879518 -0.488349 -0.878995
101 0.501049 0.216232 -0.000914375 5.16777 -3.46061 -0.393717 -0.162526 0.1852
64 0.502385 0.158322 0.047485 0.23622 -3.50247 0.0837766 -0.0374963 0.549734
62 0.555144 0.165117 -0.00115378 5.04699 -3.48249 -0.791654 0.42119 0.329135
68 0.604299 0.158315 0.0504947 4.83987 -3.49014 -0.272775 -0.466099 -0.638237
103 0.550371 0.207824 0.0499259 0.266722 -3.5067 0.504536 0.0283171 -0.194005
107 0.647522 0.206963 0.0468126 5.0704 -3.47664 0.547826 -0.0634541 0.193397
72 0.699862 0.157987 0.049031 5.25213 -3.4899 0.182393 0.163317 0.028218
109 0.69786 0.216358 -0.000385865 5.1581 -3.49548 0.503017 -0.547368 -0.323973
111 0.751723 0.207993 0.051812 5.59426 -3.51022 -0.491012 -0.0727289 -0.0893341
70 0.755752 0.167136 -0.00025171 5.44763 -3.49395 -1.07869 -0.203193 0.0250229
76 0.8018 0.158558 0.0504737 5.50397 -3.50461 -0.281429 0.0324421 0.585103
80 0.902003 0.157634 0.0522823 0.267498 -3.47271 -0.468765 0.464311 -0.258957
115 0.847984 0.207539 0.050376 0.343014 -3.4807 0.73254 0.553858 0.211475
74 0.85127 0.169155 0.00125097 0.255814 -3.50379 0.131763 -0.121305 0.194487
113 0.799159 0.216907 0.00240092 5.00231 -3.50963 0.176368 0.121509 -0.721334
117 0.899985 0.218264 0.00107871 5.78851 -3.51333 -0.16827 0.273265 0.509564
44 1.00048 0.158883 0.0503889 0.18228 -3.49531 -0.330537 -0.126765 -0.170773
119 0.950652 0.211056 0.0528134 5.15105 -3.49507 -0.375192 -1.09567 -1.07936
81 0.998682 0.217388 0.000683865 0.11023 -3.50526 0.198995 0.258584 -0.250088
123 0.0509284 0.30678 0.0511985 0.187916 -3.51018 -0.0870677 0.0293859 -0.0418999
82 0.0497757 0.265939 4.82232e-05 0.0984383 -3.52604 0.254697 -0.0127879 -0.0804019
88 0.101637 0.258123 0.0492582 4.9931 -3.51513 0.0399039 -0.151962 0.159023
127 0.150476 0.306726 0.0521344 5.42593 -3.4949 0.150337 0.0837009 -0.211179
92 0.201845 0.253136 0.0515202 5.25952 -3.48723 -0.246472 0.939981 -0.356624
131 0.251126 0.304534 0.0487081 5.20423 -3.51523 0.0108001 0.505021 -0.185119
96 0.298945 0.256285 0.0488976 5.31237 -3.48154 0.536855 0.533934 0.256647
100 0.40082 0.26033 0.0510575 5.44302 -3.49253 -0.190743 -0.686378 -0.427653
104 0.503141 0.2576 0.0508352 5.21767 -3.5025 -0.0933693 0.493831 -0.398498
98 0.448723 0.270169 0.00172054 0.520245 -3.48451 0.642786 -0.412177 -0.215424
143 0.554009 0.308893 0.04943 4.99709 -3.47482 -1.02302 -0.997668 0.0390211
102 0.547346 0.270719 -0.00222161 5.4385 -3.46368 0.239945 -0.985425 0.223888
108 0.602673 0.256804 0.0484671 0.36986 -3.49921 -0.391497 0.659035 0.50149
106 0.648941 0.264563 -0.000480935 5.09652 -3.51221 0.143371 0.53713 -0.250705
147 0.647895 0.309094 0.0497717 5.56777 -3.49033 0.29328 0.777618 0.132292
112 0.699185 0.258584 0.0477543 5.53836 -3.48947 0.138983 -0.0567053 0.507637
151 0.748091 0.31103 0.0505953 0.324563 -3.50265 0.086762 -0.825922 -0.229132
116 0.799532 0.258157 0.0493164 5.32654 -3.49947 -0.241263 0.242706 0.203946
84 1.00334 0.256858 0.049948 5.27655 -3.50695 -0.425017 0.470115 0.159448
120 0.901782 0.262178 0.0525822 5.18854 -3.48575 -0.408325 -0.787011 -0.772917
159 0.95478 0.31014 0.0533868 5.10042 -3.4865 -0.392678 -0.985487 -1.24593
118 0.950157 0.267097 5.34848e-05 5.85667 -3.51126 0.0289464 0.260276 0.587172
124 0.00424784 0.356383 0.0485767 0.441829 -3.49509 -0.164789 0.210195 0.0546998
128 0.0999974 0.355031 0.0505178 5.4283 -3.48542 0.0946001 0.747009 0.108017
133 0.305 0.315052 -0.000645959 5.00399 -3.4656 -0.885211 0.562631 -0.262225
132 0.203136 0.357654 0.0512651 5.2224 -3.4775 -0.655003 0.0714515 -0.185092
130 0.249794 0.366189 -0.00140694 5.31573 -3.49193 0.0260625 0.189014 0.404187
135 0.352353 0.310964 0.0467252 5.33993 -3.42848 0.0678938 -0.211382 1.39073
136 0.301939 0.356898 0.0485598 5.50228 -3.48744 -0.0931349 0.426003 -0.0855621
139 0.449299 0.311592 0.0488968 5.0683 -3.46628 0.471575 -0.489325 0.0364255
140 0.406137 0.363949 0.0482284 4.57256 -3.48506 -0.711285 -0.960154 -0.0445195
144 0.505071 0.356213 0.0500349 4.97148 -3.50261 -0.441643 0.373334 -0.334072
145 0.598671 0.314712 -0.00127524 5.32649 -3.49209 0.490246 1.14224 0.2205
148 0.597775 0.356595 0.0507465 4.88283 -3.47398 0.535049 0.444497 -0.770616
152 0.699184 0.360946 0.0498487 0.261879 -3.50852 -0.359594 -0.249832 0.118705
156 0.801008 0.359274 0.0496222 5.25051 -3.51553 0.0546168 -0.267562 -0.00527025
149 0.701203 0.317561 0.000198442 5.28386 -3.50474 -0.491864 -0.0541466 -0.0591168
153 0.79545 0.317627 0.00165053 4.95997 -3.49831 0.567788 -0.0632529 -0.136836
150 0.75087 0.368432 0.000415 0.273532 -3.5081 0.0840286 -0.435584 -0.00545429
155 0.848363 0.308527 0.0501856 0.299835 -3.5077 0.391187 -0.0866629 -0.312835
154 0.855133 0.364849 0.00252379 5.20098 -3.46626 -1.22297 -0.0628961 -0.419677
160 0.902676 0.354625 0.0501978 4.989 -3.50159 -0.142428 0.879933 0.366663
121 0.999996 0.313517 -0.00291708 0.825972 -3.49214 0.26943 0.840569 0.724225
163 0.0507448 0.408087 0.049184 5.46454 -3.51266 0.258934 -0.226618 -0.0185079
165 0.101747 0.414318 0.000422429 0.28053 -3.50592 -0.497906 0.843799 0.348676
164 -0.00105049 0.456993 0.0526693 5.50231 -3.51613 0.210944 0.0698542 -0.432533
168 0.101934 0.457441 0.0516481 5.30017 -3.50655 -0.43094 -0.156494 -0.404614
167 0.147922 0.408284 0.0502237 0.219362 -3.4984 0.409479 -0.732323 -0.0689994
172 0.197468 0.459573 0.0510909 0.195704 -3.49576 0.382991 0.0161958 -0.349842
171 0.249128 0.407557 0.0494013 5.40475 -3.4903 -0.338426 -0.18739 0.00569577
169 0.195619 0.419819 0.00205861 5.16042 -3.50182 0.714909 -0.604752 -0.185776
175 0.347954 0.408398 0.0481404 5.21298 -3.48948 0.63537 -0.105742 0.328791
176 0.297 0.456079 0.050078 5.12632 -3.45576 0.646707 1.55956 0.203956
180 0.40375 0.454946 0.0524995 5.50758 -3.46807 -0.142309 0.68247 -0.492489
179 0.455397 0.40967 0.0505474 4.79387 -3.48495 -0.0224269 -0.0568537 -0.408898
184 0.502679 0.458449 0.050582 0.305821 -3.49507 0.409304 0.591854 0.0445387
183 0.548633 0.407757 0.0514691 0.328949 -3.50973 0.477606 0.107106 -0.119928
188 0.599889 0.458291 0.0528029 5.30119 -3.47333 -0.410481 0.0139478 -0.974261
187 0.646931 0.411665 0.0507991 5.00227 -3.48421 0.589262 -1.09333 0.23061
189 0.699065 0.413846 -0.000483832 4.99896 -3.4958 -0.162702 0.511413 0.25727
191 0.750907 0.407543 0.0521181 5.51675 -3.49812 -0.241793 0.390638 -0.50846
192 0.698954 0.45571 0.0510984 5.37045 -3.50667 0.0598755 0.460673 0.135393
195 0.851214 0.406131 0.0517788 5.47025 -3.50135 0.0800334 0.516264 0.11659
199 0.951603 0.40601 0.0490718 5.49858 -3.50703 -0.156639 0.222788 0.218759
200 0.900771 0.457813 0.0505751 0.255734 -3.50485 -0.0556548 -0.52571 0.210295
203 0.0538419 0.506513 0.0508313 4.80716 -3.48285 -1.04948 0.162853 -0.0900727
162 0.049563 0.464582 0.00212461 5.23546 -3.49292 0.272715 0.265673 -0.378234
205 0.0980269 0.518347 0.00187523 5.03038 -3.49516 0.16413 -0.150441 -0.49214
201 -0.00372964 0.514732 0.00154888 0.489792 -3.48347 0.948547 0.045588 0.746059
207 0.148732 0.510194 0.0506012 0.102954 -3.52624 0.221358 -0.201559 0.0849211
209 0.198291 0.517934 0.00147975 5.60085 -3.50666 0.144593 -0.00440069 -0.352723
166 0.145248 0.467978 0.000457855 5.1379 -3.49736 0.32449 -0.350492 -0.334741
211 0.248821 0.511624 0.0519889 5.58343 -3.49623 0.231571 -0.758483 -0.406751
170 0.247917 0.469686 -0.000803554 5.29175 -3.51237 0.0919043 -0.141819 0.468295
213 0.298937 0.519414 0.00049495 5.32249 -3.51562 0.000265683 -0.898223 0.0916823
215 0.35055 0.509158 0.0494513 5.47806 -3.46879 -0.132314 -0.521388 0.480323
178 0.4472 0.467468 0.00169522 5.09745 -3.48676 1.06653 -0.207533 -0.977975
219 0.454706 0.507674 0.0495717 5.07394 -3.47382 -0.863155 0.584668 0.0544625
221 0.502692 0.518878 -0.00233076 4.90836 -3.49771 -0.391785 -0.29458 0.811427
223 0.554472 0.511177 0.0514858 4.71228 -3.48432 -0.936081 -0.354653 -0.377894
227 0.649525 0.50615 0.0478687 0.519813 -3.49398 0.37846 0.696195 0.547231
231 0.747242 0.506966 0.0514673 5.48286 -3.4874 0.442759 0.0122688 -0.425627
190 0.744759 0.466104 -0.000117419 0.801219 -3.49893 0.476625 -0.178659 0.263268
196 0.801963 0.460088 0.0506948 5.33205 -3.48536 -0.505031 -0.709415 -0.065555
235 0.852168 0.504287 0.0526981 4.811 -3.47656 -0.677361 1.46208 0.00811736
239 0.949237 0.505716 0.0537499 5.37842 -3.51211 0.163126 0.343579 -0.53886
237 0.899164 0.515751 0.00319889 0.338356 -3.49964 0.474561 -0.193397 -0.780439
208 0.0981264 0.558524 0.0491892 0.230919 -3.4898 0.346922 0.166445 0.144415
204 -0.00207562 0.559451 0.0509707 5.34239 -3.47234 0.502346 -1.01792 -0.0701875
243 0.0516933 0.60706 0.0514945 5.22826 -3.50868 -0.498287 0.080984 -0.160813
212 0.198375 0.559206 0.0500776 5.72484 -3.49769 0.263142 -0.0626697 -0.0907475
247 0.149345 0.60971 0.052099 5.17694 -3.49295 0.0135553 -0.654324 -0.64997
216 0.30374 0.559723 0.0521281 5.10696 -3.51082 -0.472288 -0.17439 -0.189524
251 0.252095 0.609801 0.0499313 5.35549 -3.50816 -0.669996 -0.229926 0.320712
210 0.251853 0.568948 0.00303322 5.05175 -3.51047 -0.163212 -0.275782 -0.576017
220 0.398681 0.557487 0.0474226 0.419645 -3.5008 0.272815 -0.0175093 0.376551
255 0.349167 0.608943 0.0496642 0.137812 -3.50654 0.364458 0.574341 0.110318
224 0.497896 0.559347 0.0510754 5.57501 -3.50292 0.143815 -0.187539 -0.246474
218 0.448847 0.565465 -0.000324056 0.231262 -3.50445 0.000832877 0.557434 0.00362138
259 0.445038 0.610153 0.0505546 5.00798 -3.50722 0.229237 -0.602368 -0.289141
228 0.600479 0.558152 0.0519717 5.49463 -3.49358 0.21481 0.242806 -0.42561
263 0.549399 0.607637 0.0533989 0.23927 -3.50771 0.089574 0.173377 -0.0969537
226 0.648545 0.570046 -0.00116231 5.39471 -3.49628 0.22293 -0.389336 0.573285
232 0.702035 0.557328 0.0492631 5.56516 -3.49364 -0.809062 -0.520877 -0.233524
267 0.653396 0.607921 0.0521574 5.23289 -3.50402 -0.454836 0.197754 -0.309119
271 0.751367 0.606421 0.0517925 5.26792 -3.49966 0.12717 0.285142 -0.175549
236 0.804098 0.556804 0.0501095 5.16568 -3.49943 -0.205822 -0.1924 -0.181813
275 0.852791 0.607481 0.0502599 5.29362 -3.50481 -0.410547 -0.185009 -0.0715198
240 0.899082 0.55659 0.0529246 0.203064 -3.50135 0.160666 0.165296 -0.0357507
279 0.946938 0.605754 0.0540024 5.322 -3.47951 0.534991 0.560102 0.138271
238 0.951621 0.565516 0.00280677 0.430518 -3.46291 -0.861551 -1.07956 -0.970101
248 0.101415 0.656212 0.0508113 0.243389 -3.48148 -0.499566 0.447545 0.249586
244 0.00381724 0.657624 0.0502577 0.721413 -3.48343 -0.83152 0.427378 0.465404
252 0.196337 0.658194 0.052588 5.41022 -3.49786 0.540693 0.0573154 -0.551991
249 0.200334 0.619284 0.000666378 5.44158 -3.49339 -0.275273 -0.658474 -0.153505
256 0.298893 0.657343 0.0487248 5.13971 -3.48676 0.164072 0.750663 0.298238
260 0.399544 0.662093 0.048477 4.89619 -3.49661 -0.278012 -0.712393 0.107363
254 0.347316 0.669967 -0.00203884 4.9798 -3.50833 0.313879 -0.572746 0.495669
264 0.499126 0.656674 0.0490449 5.40098 -3.4939 0.164655 0.342564 0.424878
258 0.450282 0.663157 0.000216475 4.89546 -3.49907 -0.0131778 0.950476 0.0580994
268 0.602767 0.660256 0.0518766 5.38153 -3.49034 -0.364626 -0.621798 0.199536
269 0.703144 0.61728 0.00102516 5.39309 -3.50422 -0.319276 0.14859 0.335951
272 0.703758 0.659043 0.0491917 4.91452 -3.4947 -0.205624 -0.451631 0.425122
276 0.799886 0.656315 0.052236 5.02924 -3.51288 0.605328 -0.0713754 -0.329338
280 0.903481 0.658768 0.050533 4.7684 -3.49606 -0.372256 0.171057 0.714143
241 0.992632 0.613259 0.00208153 5.44039 -3.43102 0.92756 1.50349 -0.0397317
278 0.944486 0.669462 0.000786929 4.97933 -3.46369 0.67776 -0.509456 0.00638352
283 0.0522147 0.708412 0.0522352 5.49294 -3.49953 -0.441487 -0.3998 -0.401875
288 0.0994128 0.758873 0.0521879 0.37617 -3.49982 0.206313 0.00320162 -0.84922
287 0.146209 0.705877 0.0503942 0.521614 -3.49056 0.655342 0.418187 -0.437927
289 0.198872 0.717942 -0.000103383 5.50363 -3.51186 -0.161278 0.0470711 0.226003
291 0.245487 0.70717 0.051242 5.36738 -3.50095 0.58544 0.643963 -0.20498
292 0.1964 0.758678 0.0508307 5.17615 -3.48874 0.571138 -0.235367 -0.513553
295 0.350235 0.710066 0.0487308 5.28498 -3.50657 -0.0586595 0.148011 0.0937
296 0.299361 0.759359 0.0484587 0.258794 -3.49187 -0.126249 -0.292183 0.373869
299 0.451125 0.709025 0.0478067 5.10403 -3.5083 0.00323848 -0.163958 0.576693
300 0.404843 0.760312 0.0490267 4.67665 -3.50939 -0.465464 -0.219199 0.403319
297 0.402209 0.715544 0.000351439 0.221827 -3.51161 0.0494659 0.27695 -0.0866282
298 0.453179 0.764748 -7.70601e-05 5.31931 -3.50411 0.157224 0.253986 0.134508
303 0.550655 0.708513 0.0530049 0.233497 -3.51211 -0.289032 -0.204519 -0.391919
304 0.499899 0.759754 0.0545944 5.13832 -3.50308 0.273989 -0.719196 -0.687831
307 0.650135 0.708213 0.0533794 5.62589 -3.50284 0.317419 0.0141304 -0.236457
308 0.601989 0.755713 0.0519027 5.01902 -3.50223 -0.151573 0.33734 -0.163125
312 0.700962 0.758575 0.0536066 0.218829 -3.49402 0.19403 -0.374475 -0.00903745
306 0.653571 0.766642 0.00625169 5.34094 -3.47239 -0.375704 -0.0980546 -0.887273
311 0.753736 0.706177 0.0529473 5.28524 -3.5032 0.0397861 0.292285 -0.130659
315 0.850203 0.705694 0.0548791 5.04618 -3.46409 0.1565 0.357499 -0.325101
316 0.801643 0.758061 0.0526981 5.28378 -3.50452 -0.0441949 0.150899 -0.129509
313 0.808834 0.715892 0.0042734 5.21253 -3.49642 -0.902734 -0.448388 -1.05324
317 0.89627 0.717913 0.00248959 0.594424 -3.49885 0.715857 0.0312561 -0.153735
320 0.898715 0.761243 0.0514701 4.87356 -3.49126 0.556935 -0.491853 0.725427
284 1.0048 0.757447 0.0527477 5.2494 -3.47349 -0.949658 0.286193 -0.0662849
319 0.950684 0.708413 0.052353 5.41206 -3.48898 -0.249687 0.0937877 0.250254
281 0.995802 0.717866 0.00334033 5.09696 -3.49917 0.591701 -0.343939 -0.0575419
323 0.0454162 0.807895 0.0488781 5.36728 -3.48197 0.627137 -0.0910465 0.493061
325 0.0959794 0.818172 0.0019298 5.46712 -3.49131 0.442805 -0.600353 -0.527609
327 0.150764 0.809074 0.0523792 5.10354 -3.5227 -0.300949 0.0124215 -0.387555
331 0.248233 0.807359 0.0512163 0.254015 -3.50106 0.271698 0.167428 -0.238364
335 0.348674 0.806584 0.050287 5.48889 -3.48879 0.533867 0.389719 0.126908
337 0.400858 0.814095 0.00249672 4.8876 -3.49504 0.476906 0.496117 -0.496114
339 0.455078 0.808409 0.0489785 4.95067 -3.4957 -0.249335 0.471987 0.422832
343 0.550674 0.804921 0.0507579 0.50254 -3.47721 -0.060467 0.776081 0.494384
345 0.599729 0.814633 0.00409399 5.18373 -3.49542 0.47376 0.0120513 -0.853355
347 0.650673 0.810214 0.0553872 0.936621 -3.48248 0.0140062 -0.942947 -1.28144
351 0.748297 0.808446 0.050158 5.39797 -3.50685 0.673749 -0.20758 0.166857
355 0.850949 0.809147 0.0532721 5.13166 -3.47148 -0.641715 -0.197752 -1.16535
353 0.799115 0.813223 0.000877111 5.13816 -3.49446 0.16423 0.683517 -0.00868114
357 0.902715 0.816874 0.00303319 5.17887 -3.49809 -0.422452 0.331789 -0.274452
359 0.954337 0.807242 0.0508812 4.90273 -3.4844 -0.48281 0.335194 0.586662
321 1.00058 0.815795 0.0006959 0.192504 -3.48461 -0.143463 0.20439 -0.454229
363 0.046331 0.908764 0.0493128 5.61638 -3.48201 0.76157 0.327615 0.0996723
322 0.0514934 0.868167 -0.00057652 4.99319 -3.49368 -0.489972 -0.0446222 -0.145445
365 0.100535 0.917821 -0.00306842 4.82761 -3.46215 -0.153247 -0.60186 1.24452
328 0.0955464 0.855754 0.0513546 4.94707 -3.45458 0.920779 0.719487 -0.619423
367 0.152346 0.906597 0.0499672 5.41288 -3.47809 -0.7157 -0.0256681 -0.25482
332 0.200694 0.858926 0.0484953 5.11902 -3.50419 -0.00928929 -0.351616 0.317299
371 0.248981 0.9081 0.0491577 0.1151 -3.5135 0.0370121 -0.0222192 -0.182287
373 0.300727 0.914832 -0.000989441 5.41361 -3.47841 -0.19391 -0.0373622 0.590915
336 0.29973 0.860922 0.0489805 5.16983 -3.48036 -0.0122735 -1.02462 -0.0233416
375 0.34969 0.90636 0.0486291 5.69425 -3.50773 0.437749 0.709904 0.456562
334 0.353428 0.864558 -0.00185471 4.79264 -3.50768 -0.232321 0.243406 0.335601
340 0.401687 0.858557 0.0496965 5.72919 -3.51608 -0.0552749 -0.231251 0.308279
379 0.450951 0.907767 0.04931 5.60726 -3.49833 -0.268849 0.34281 0.293153
344 0.503405 0.860237 0.0496959 4.99227 -3.4572 -0.697038 -1.58719 -0.0823495
383 0.551298 0.907606 0.0528678 0.463862 -3.4806 0.142172 0.578179 -0.578935
348 0.599927 0.855169 0.0510884 0.469831 -3.49615 -0.0927965 0.568901 0.078632
387 0.646181 0.907372 0.0492383 5.12803 -3.48711 0.717825 0.108854 0.645689
352 0.700246 0.85774 0.0485534 5.42203 -3.49436 0.0451525 0.72161 1.0087
346 0.649465 0.865794 0.000871872 0.217565 -3.4953 -0.00885603 0.296599 -0.017565
389 0.694857 0.919256 -0.00133056 5.12297 -3.46074 0.504724 -0.138436 0.41011
391 0.752931 0.907223 0.0507973 5.64778 -3.48043 -0.858739 0.247765 0.200037
356 0.802866 0.857777 0.0521294 5.55962 -3.49403 -0.89794 -0.260676 -0.6347
393 0.801392 0.916338 0.00407166 5.03178 -3.47328 -0.189688 -0.334271 -1.57386
360 0.900784 0.859748 0.0520308 5.62691 -3.50187 0.203334 -0.05266 -0.587861
395 0.847252 0.908001 0.0508896 5.26683 -3.49339 0.85767 0.30876 0.528934
354 0.849358 0.867693 0.00159598 5.49969 -3.46549 0.155204 -0.290542 -0.300851
324 1.00254 0.859063 0.0474585 5.1508 -3.48658 -0.63951 0.0825038 0.826876
399 0.950599 0.910196 0.0501179 5.58433 -3.5074 0.202425 -0.352657 0.391114
361 0.998174 0.917568 -0.000289137 4.92566 -3.51764 0.285595 0.0507101 -0.0535623
368 0.1022 0.958786 0.0487436 4.81414 -3.49332 -0.113472 -0.670813 -0.0136432
362 0.0493594 0.967139 -0.00166971 4.93557 -3.46713 0.17401 0.145247 0.512731
366 0.148094 0.963181 -0.00405521 5.51293 -3.45454 0.933271 1.69412 1.52975
372 0.198711 0.958148 0.0517269 4.87594 -3.49992 0.000987707 0.238154 -0.548304
376 0.300824 0.955876 0.0484332 5.17879 -3.51705 -0.241504 0.412667 0.0605474
374 0.351102 0.964546 0.000640743 5.49649 -3.51151 -0.329465 0.377506 -0.198784
380 0.398947 0.960342 0.0485658 5.11218 -3.48185 0.0628245 -0.427998 0.465705
384 0.496048 0.958331 0.0494327 5.35202 -3.49814 0.623271 0.0680367 0.257294
388 0.599428 0.958774 0.0525292 5.70861 -3.50768 0.26497 0.0259599 -0.733259
386 0.649913 0.970639 -0.00220968 5.37175 -3.48782 0.0947294 -0.32779 0.140572
392 0.699487 0.958917 0.0514067 0.186303 -3.48469 0.210362 -0.232409 -0.527465
396 0.798198 0.95978 0.0474483 4.85388 -3.44207 0.684923 -0.148423 1.65995
390 0.754537 0.968762 0.000294706 5.46886 -3.47263 -0.979959 -0.200451 0.00381527
400 0.90062 0.959061 0.0486538 5.08966 -3.47885 -0.15178 0.139316 1.29058
364 1.00162 0.961004 0.0493496 5.36671 -3.51233 -0.235596 -0.587993 0.410899
402 0.0506257 0.0499633 0.0983117 4.73169 -3.50525 -0.104044 -0.653577 0.639186
405 0.0992441 -0.00247559 0.100595 0.276507 -3.49837 0.323607 0.156058 -0.302528
404 0.00476705 0.0398001 0.150201 5.30057 -3.50046 -0.40229 -0.031933 0.298287
408 0.0994519 0.0388022 0.150116 0.208898 -3.50827 0.0307338 0.348045 -0.245875
406 0.149075 0.0469419 0.099716 5.24062 -3.52187 0.00632391 0.526469 -0.0963041
412 0.197416 0.039725 0.148197 5.30867 -3.48274 0.887934 0.405552 0.779369
410 0.253888 0.0503006 0.0987052 5.44443 -3.51094 -0.53056 -0.327538 0.100787
416 0.299876 0.0402041 0.151112 5.44163 -3.50504 -0.054383 0.347064 -0.788644
414 0.350702 0.0483217 0.0982875 5.14034 -3.49027 -0.498403 0.592824 0.174156
420 0.397368 0.0424162 0.145497 5.00103 -3.49192 0.712338 -0.130629 0.905773
418 0.453374 0.0512781 0.0963529 4.72105 -3.46817 -0.701729 0.024935 0.825335
417 0.399501 -0.0018803 0.0992186 0.394319 -3.50503 0.0776424 0.446072 -0.0150635
424 0.501597 0.0408193 0.149968 5.42362 -3.50183 0.104091 0.092338 -0.70154
421 0.496173 0.00114147 0.0991256 5.05484 -3.49567 0.671706 -0.261022 0.307129
422 0.550764 0.0520614 0.0969008 0.515442 -3.4499 0.718261 -0.420917 1.28207
425 0.602485 0.00298632 0.101037 5.11593 -3.50204 -0.320685 -0.58338 -0.348596
428 0.602851 0.0395302 0.153033 5.31071 -3.45193 -0.460567 0.875686 -0.915745
426 0.649619 0.0514998 0.098089 0.369806 -3.48018 0.311715 0.210496 0.359809
432 0.697421 0.0407533 0.15361 5.4996 -3.49376 0.371338 0.226045 -0.527541
430 0.746923 0.0505978 0.0993176 5.15173 -3.46157 0.376839 -0.508419 0.333072
433 0.800579 -0.00118065 0.102232 5.17288 -3.49871 0.0186404 -0.15231 -0.419797
436 0.801158 0.0383012 0.152548 5.07976 -3.48026 -0.602252 0.634153 -0.715538
434 0.849771 0.050421 0.0986675 5.48602 -3.49678 0.0134438 -0.506748 0.4429
440 0.894614 0.0382054 0.151438 4.96742 -3.50514 0.747958 0.539118 0.042803
438 0.947445 0.0481869 0.102221 4.89396 -3.49762 0.651409 0.370548 0.342322
437 0.90142 0.000925252 0.10082 5.00487 -3.48484 -0.484916 -1.14761 -0.085438
442 0.049351 0.148092 0.100031 5.48089 -3.49638 -0.143814 0.319464 0.281831
443 0.051348 0.0908233 0.151878 0.290965 -3.51828 -0.0407377 -0.225194 -0.44202
444 0.000188713 0.140211 0.151223 0.0818809 -3.512 -0.319008 -0.213642 -0.291772
445 0.0989315 0.0993828 0.0992548 5.59575 -3.49296 0.484612 -0.0837967 0.538435
446 0.151517 0.148727 0.102144 0.369616 -3.49539 -0.165167 -0.00550063 -0.88264
447 0.148942 0.0880123 0.151812 5.14416 -3.50491 -0.0893573 0.488648 -0.38248
448 0.099582 0.140536 0.149192 0.132052 -3.52136 0.217347 -0.332205 0.0428069
449 0.199866 0.0985506 0.0995246 0.121558 -3.48154 -0.131612 -0.0218672 -0.0372847
452 0.198314 0.138437 0.150675 5.1456 -3.49254 -0.624341 0.723151 -0.469567
450 0.246777 0.149291 0.100365 5.48102 -3.49385 0.277528 -0.383925 0.0545582
451 0.245981 0.089532 0.148633 4.87636 -3.48533 1.21319 0.626966 0.710548
453 0.300145 0.100084 0.0966541 5.56026 -3.49547 0.02258 0.126084 0.823802
456 0.299281 0.141187 0.148747 5.0882 -3.50251 -0.182648 -0.457135 -0.00561655
454 0.353064 0.148795 0.103224 5.01784 -3.48177 -0.689735 0.362466 -0.855771
455 0.349868 0.0912265 0.14834 4.87908 -3.51763 -0.382237 0.1167 -0.0329012
460 0.401362 0.139468 0.148302 5.65682 -3.49274 0.337805 0.140763 0.302085
457 0.40021 0.0989 0.0986569 0.121993 -3.51476 0.045316 0.0297185 0.0469253
458 0.453568 0.149514 0.0982715 5.50684 -3.48852 -0.327456 0.540406 0.439372
459 0.453016 0.0903499 0.14701 0.234435 -3.51727 -0.326433 -0.0669791 0.26168
461 0.502002 0.101989 0.098647 5.47691 -3.47714 0.583709 -0.095337 0.416079
464 0.501309 0.139687 0.149356 5.03483 -3.50834 0.193247 0.0534477 -0.0710018
463 0.556145 0.0913489 0.149246 5.35592 -3.49053 -0.894679 0.0886301 0.0257864
465 0.599776 0.100619 0.0985009 5.33977 -3.49053 0.635461 -0.608239 -0.1714
466 0.652267 0.146933 0.101957 0.363252 -3.51062 0.0906114 0.514479 -0.0570557
469 0.705738 0.100054 0.0994257 5.02504 -3.4822 -1.14556 -0.0869249 0.0981322
472 0.697485 0.139349 0.153443 5.24839 -3.50115 1.17239 0.157766 -0.262357
471 0.750019 0.0909402 0.14991 5.50018 -3.49974 -0.0582934 -0.196983 0.380255
470 0.750206 0.148243 0.102806 0.136535 -3.4698 0.15319 0.283316 -0.0519131
473 0.798558 0.0971662 0.101611 0.406084 -3.51126 0.240647 0.738983 -0.0284692
476 0.801643 0.140339 0.152951 5.87362 -3.52176 -0.135589 -0.260073 -0.187015
474 0.84816 0.148577 0.104328 5.39852 -3.5007 0.424773 -0.249218 -0.694307
475 0.849445 0.0893127 0.148982 4.89829 -3.51446 -0.148791 0.037198 0.551818
477 0.901114 0.098769 0.104666 5.22214 -3.49675 -0.122202 -0.0601318 -1.24077
480 0.899863 0.139852 0.153015 4.97951 -3.49357 0.183806 -0.223127 -0.460212
441 1.00099 0.0973108 0.101764 5.39593 -3.49102 -0.508978 0.2443 0.433856
478 0.950994 0.147138 0.100654 0.245971 -3.50257 0.00596077 0.270903 0.331948
479 0.949805 0.0880143 0.152945 5.31477 -3.5035 0.124255 0.15662 -0.0201783
483 0.0513338 0.188005 0.148997 4.95795 -3.50814 -0.307419 0.631215 0.0436689
485 0.100327 0.199511 0.0983468 5.366 -3.50785 0.214078 -0.527987 0.141708
487 0.151166 0.189796 0.148378 5.1429 -3.50793 -0.448979 0.371338 0.582204
489 0.204381 0.200017 0.100186 4.77335 -3.50601 -0.539006 -0.0412189 0.216965
491 0.249759 0.188572 0.152679 5.14044 -3.49055 -0.221266 0.447976 -0.320738
493 0.296994 0.195024 0.103884 4.89671 -3.4685 0.499702 0.640678 -0.737133
495 0.353803 0.190185 0.151373 4.70782 -3.49498 -0.591773 0.288855 0.41203
497 0.400249 0.201147 0.0985114 5.25946 -3.51191 0.00215117 -0.335441 0.3153
499 0.452162 0.191077 0.148647 0.134139 -3.51709 -0.246541 -0.0532435 0.168844
501 0.503314 0.199999 0.0999192 5.40476 -3.51917 0.0650636 -0.375436 -0.172107
462 0.557097 0.150345 0.100442 5.34681 -3.48452 -0.931247 -0.289572 -0.741082
503 0.550411 0.188418 0.149523 4.96534 -3.50289 0.179433 0.708889 0.42487
505 0.60724 0.199334 0.100674 5.12713 -3.47187 -0.66024 -0.29789 0.119874
507 0.654587 0.189585 0.154332 4.8239 -3.46211 -1.26505 0.448285 -1.30689
509 0.700314 0.197824 0.100927 0.199301 -3.50055 0.00106564 0.0690853 -0.118274
511 0.751625 0.189293 0.151138 0.173945 -3.48876 -0.194764 0.161148 0.526346
513 0.800261 0.197199 0.103588 5.74725 -3.50961 0.0523188 0.647709 -0.588341
515 0.851509 0.190312 0.151015 0.164773 -3.49751 -0.116067 0.440587 0.386205
481 0.998518 0.198334 0.0985711 5.308 -3.50766 0.458537 0.178395 0.469576
517 0.900122 0.197738 0.100046 0.292708 -3.49502 -0.308894 0.886989 0.346715
519 0.948344 0.190182 0.146833 4.92527 -3.49892 0.647382 0.041471 0.928903
482 0.0528178 0.246116 0.0968245 5.49588 -3.48503 -0.561719 1.22316 0.493956
523 0.05244 0.290243 0.14775 5.08606 -3.49668 -0.318966 -0.169942 -0.597401