ITEM: TIMESTEP
250
ITEM: NUMBER OF ATOMS
4000
ITEM: BOX BOUNDS pp pp pp
1.2861955923317059e-01 3.5971380440766758e+01
-1.8913844485775044e-01 3.6289138444857755e+01
-1.7665511671577150e-01 3.6276655116715801e+01
ITEM: ATOMS id xs ys zs c_csym c_peratom fx fy fz
2 0.0493068 0.0436049 -0.00135947 1.14917 -3.49944 -0.0533941 1.54633 0.574434
4 0.00234931 0.0522021 0.0504407 1.09465 -3.49387 -0.531045 -0.85054 0.183158
8 0.100625 0.0491168 0.0504554 0.163024 -3.52405 -0.366302 -0.29937 -0.105048
12 0.200109 0.0515907 0.0474719 0.618317 -3.49726 -0.285634 -0.897459 0.866157
16 0.295958 0.0511135 0.0497991 0.580683 -3.50428 0.665223 -0.261552 0.382202
20 0.398231 0.052003 0.0457807 0.65323 -3.50567 0.354895 -0.545396 0.636342
19 0.451114 -0.00146032 0.0461472 0.545924 -3.49914 0.143838 1.04367 1.22164
24 0.500476 0.0501247 0.0504114 0.179822 -3.52356 -0.348607 0.144514 -0.226638
27 0.649209 0.00371869 0.0504455 0.425711 -3.50508 0.0620588 -0.456893 -0.404855
28 0.599327 0.0542905 0.0518911 0.511134 -3.51135 -0.0235554 -0.562727 -0.179006
32 0.698431 0.0506281 0.0512 0.246244 -3.51844 0.297594 0.117552 -0.176222
36 0.800741 0.0500107 0.0489088 0.263545 -3.52429 -0.0965728 0.133121 0.3627
35 0.850122 8.61638e-05 0.049416 0.233285 -3.49143 -0.376371 -0.117705 0.482011
40 0.89994 0.0512149 0.0490183 0.22736 -3.50842 -0.604627 -0.247053 0.0320345
1 0.995259 -0.000410418 0.00141386 0.504353 -3.51107 0.699028 -0.551989 -0.638548
38 0.949849 0.0499511 0.00221251 0.368035 -3.50356 -0.30515 -0.100916 -0.708177
41 -0.00336919 0.0973378 0.00167929 0.708848 -3.48334 0.899167 0.60736 -0.680417
42 0.04859 0.151824 0.00161295 0.297133 -3.50672 0.0941402 -0.627537 -0.136121
43 0.0494901 0.0962034 0.048268 0.48766 -3.46956 0.193637 0.764298 0.382348
45 0.096352 0.0985231 0.00200863 0.626157 -3.50411 0.394338 0.168096 -0.832563
46 0.148539 0.147329 -0.000457028 0.352001 -3.52343 -0.0755229 0.192364 -0.0290651
47 0.150215 0.0993487 0.0495722 0.166838 -3.51854 -0.25539 0.239281 -0.0687309
48 0.0992402 0.149406 0.0500539 0.157117 -3.52217 -0.0837859 -0.254228 -0.187311
49 0.200695 0.0999015 0.00120693 0.154201 -3.51361 0.16705 -0.0683425 -0.470661
52 0.199079 0.149594 0.0478074 0.50196 -3.49914 0.188758 -0.198832 1.05674
51 0.247143 0.0982182 0.0530461 0.514107 -3.51529 0.419401 0.596174 -0.345808
50 0.250677 0.152144 0.00473762 0.708422 -3.49826 0.415032 -0.428607 -0.556663
56 0.300393 0.146009 0.0562571 0.818894 -3.51368 -0.00133191 0.486996 -0.370346
54 0.351719 0.150285 0.00242369 0.288234 -3.50882 -0.366291 0.120383 -0.0813823
55 0.350839 0.0991909 0.0516274 0.149849 -3.50485 -0.223655 0.148057 0.224927
60 0.402101 0.152568 0.0496328 0.41175 -3.5097 -0.668053 -0.533113 0.758249
58 0.448386 0.14906 -0.00188439 0.260938 -3.49699 0.453403 0.780157 0.329933
59 0.451568 0.101444 0.0495826 0.418821 -3.51813 -0.276016 -0.21142 0.139858
64 0.496989 0.153859 0.0502127 0.76871 -3.4756 0.027325 -1.34284 -0.169505
63 0.54704 0.100974 0.0524206 0.4503 -3.50798 0.0188704 0.08845 -0.501705
67 0.647404 0.100068 0.0530567 0.451501 -3.51057 0.454476 0.0975081 -0.417249
68 0.59975 0.14857 0.049376 0.406752 -3.51644 -0.1654 0.155329 0.313161
72 0.70271 0.150373 0.0520494 0.389488 -3.51547 -0.486346 -0.15516 -0.316615
71 0.753513 0.10042 0.0527128 0.538539 -3.51197 -0.711859 -0.166625 -0.0788548
73 0.797811 0.102166 0.000756566 0.393111 -3.49106 0.625771 -0.542549 -0.764834
76 0.801313 0.150373 0.0468533 0.604341 -3.47434 -0.197477 -0.215341 1.2439
75 0.849757 0.0990035 0.0469623 0.515568 -3.51706 0.0160403 0.177445 0.636717
77 0.901658 0.101065 0.000201544 0.220622 -3.51897 -0.387797 -0.0707757 -0.0915947
80 0.899171 0.149829 0.0495942 0.176103 -3.51894 0.0837884 -0.238425 -0.116356
44 0.999098 0.148575 0.052889 0.34983 -3.5194 0.241344 -0.0923805 -0.483243
78 0.95132 0.150315 0.00320842 0.377959 -3.52538 -0.0989778 0.00345342 -0.31958
79 0.948516 0.0981394 0.0518226 0.294033 -3.5192 0.26011 0.340848 -0.0278804
83 0.0489293 0.198215 0.0516032 0.362206 -3.49379 0.594584 0.114199 -0.562019
84 -0.00129775 0.246198 0.0503648 0.444495 -3.50568 -0.0114746 0.586851 -0.278765
85 0.1019 0.201004 -0.00083831 0.343003 -3.50545 0.112752 -0.368403 0.320101
87 0.14947 0.196309 0.0492874 0.434818 -3.51229 0.535807 0.66945 0.329291
86 0.151767 0.24895 0.00141296 0.296768 -3.52065 -0.271608 0.165328 -0.336841
88 0.103717 0.247528 0.0544138 0.965775 -3.48984 -1.4509 1.0904 -1.63454
89 0.201026 0.19839 0.000657904 0.243268 -3.51556 -0.0838991 0.532949 0.088582
91 0.250482 0.199411 0.0539737 0.316862 -3.50619 -0.136957 -0.0636679 -0.36393
92 0.199495 0.251085 0.0488479 0.198329 -3.51267 0.30557 -0.287675 0.0342111
96 0.298153 0.248364 0.0503081 0.259869 -3.51181 -0.0769635 0.164515 0.210077
95 0.348925 0.198294 0.0549207 0.533092 -3.51911 0.211865 0.123647 -0.417837
94 0.345926 0.248876 0.00368681 0.678676 -3.49024 0.914905 -0.00335171 -0.654046
100 0.399862 0.252332 0.0522179 0.209115 -3.51794 -0.391788 0.0916735 -0.289928
99 0.446793 0.202991 0.0513511 0.455713 -3.48604 0.860145 -0.661715 -0.685142
103 0.545946 0.198914 0.0529768 0.428718 -3.50872 0.589471 0.16105 -0.31521
107 0.650179 0.201591 0.0546048 0.515373 -3.49289 -0.294716 -0.376897 -0.823095
106 0.64875 0.249065 0.00115094 0.196937 -3.5193 0.20331 0.0270233 0.122624
108 0.594859 0.250628 0.0513085 0.506845 -3.51577 0.490893 -0.331145 0.116192
109 0.699988 0.199375 0.00150199 0.113448 -3.52683 -0.143082 0.200198 0.181845
111 0.747929 0.200511 0.0522139 0.48331 -3.51498 0.452237 0.17159 -0.456269
112 0.699047 0.252248 0.0520643 0.324186 -3.52178 0.127617 -0.349136 -0.569245
113 0.79823 0.202317 0.00207365 0.392277 -3.5093 0.302618 -0.157655 -0.305456
116 0.799523 0.251934 0.0506665 0.27782 -3.50685 0.406647 -0.424936 -0.253262
115 0.85041 0.197429 0.0513824 0.546469 -3.48645 0.00612697 1.19412 -0.335673
120 0.90246 0.252243 0.0496628 0.426161 -3.51807 -0.416843 -0.364986 0.144886
119 0.948387 0.199581 0.0497394 0.334119 -3.51488 0.510365 0.00972439 0.196887
82 0.052757 0.247176 0.000919598 0.277828 -3.50064 -0.102026 0.462509 0.117281
123 0.0523263 0.298372 0.0517522 0.284043 -3.51944 0.016898 -0.463483 -0.174303
125 0.101547 0.298906 -0.000773257 0.17069 -3.51679 -0.184127 -0.247464 -0.0517732
127 0.150155 0.300588 0.0484388 0.26097 -3.5262 0.0467591 -0.0527005 0.184456
129 0.200111 0.303428 -0.00172862 0.371682 -3.52408 0.0739995 -0.568373 0.316191
131 0.250215 0.302207 0.0495087 0.272312 -3.513 -0.249248 -0.651869 -0.0895291
133 0.300123 0.298545 0.000315192 0.191498 -3.52932 -0.357194 0.18388 -0.0861995
135 0.347976 0.302616 0.0503706 0.444522 -3.51798 0.329372 -0.533406 0.0594355
137 0.398094 0.30088 -0.000607668 0.254821 -3.51144 0.138036 -0.401795 0.0716252
98 0.451003 0.249174 0.002973 0.477719 -3.51179 -0.643897 0.686124 -0.698785
139 0.448826 0.302237 0.0488044 0.443004 -3.50691 0.0967386 -0.451618 0.442108
104 0.498982 0.250618 0.0531479 0.273379 -3.50721 0.0563692 -0.664978 -0.725231
141 0.501411 0.300017 0.00197641 0.252514 -3.52504 -0.133639 -0.350294 -0.296265
102 0.547397 0.246639 0.00155133 0.338272 -3.53047 0.074287 0.13819 0.00434836
143 0.550039 0.300275 0.0495811 0.2579 -3.50692 -0.0345961 0.0788694 0.384036
145 0.598555 0.299622 0.00334839 0.245594 -3.51873 0.195647 0.0709678 -0.443649
147 0.64672 0.299353 0.0510771 0.318358 -3.51316 0.25568 0.0175586 0.409449
149 0.701719 0.300255 0.00262522 0.36653 -3.52427 -0.403203 -0.116754 -0.10813
151 0.752205 0.301063 0.0506351 0.363987 -3.51121 -0.138817 0.226871 -0.374587
153 0.799924 0.299659 -0.00224682 0.252053 -3.52068 0.0975121 0.410396 0.490255
114 0.850634 0.250962 0.00015907 0.0635754 -3.52447 -0.0773689 -0.280658 0.200516
155 0.848409 0.298685 0.0500386 0.319194 -3.5059 0.186619 0.0653264 -0.206555
118 0.950612 0.249332 -0.00248241 0.324963 -3.52338 0.195556 -0.0167463 0.329359
159 0.948721 0.300835 0.0505169 0.621142 -3.51031 0.623849 -0.369344 -0.0722951
124 0.00168051 0.34694 0.0519185 0.186525 -3.52497 -0.151988 0.125912 -0.221566
163 0.0497596 0.397426 0.0514543 0.263814 -3.50935 0.134801 0.444607 -0.346774
126 0.149377 0.351402 0.000969199 0.225695 -3.52098 0.127104 -0.280771 -0.429989
128 0.099463 0.348242 0.0499156 0.0840903 -3.52733 0.0185513 0.0478292 -0.0651983
165 0.09626 0.397791 -7.80568e-05 0.483436 -3.5149 0.410615 0.576358 0.260607
167 0.147957 0.397735 0.0503661 0.216933 -3.52288 0.125331 0.369818 0.140758
132 0.201534 0.351337 0.0507032 0.271911 -3.52984 -0.468151 -0.337417 -0.154828
169 0.198314 0.399096 0.000615196 0.200449 -3.5182 0.295132 -0.0363124 -0.133264
171 0.248988 0.401154 0.0478567 0.362101 -3.49182 0.102843 -0.605756 0.976454
130 0.250978 0.351106 -0.00133579 0.236561 -3.51725 -0.236062 -0.18104 0.377283
136 0.297226 0.348593 0.0517549 0.330306 -3.51081 0.2332 0.703435 -0.171597
134 0.34726 0.350061 0.000554502 0.226998 -3.51877 0.00544434 0.121223 -0.0797497
140 0.399153 0.347658 0.0511006 0.269756 -3.51984 -0.109726 0.279846 0.292154
175 0.348811 0.397951 0.0509693 0.195732 -3.53088 -0.0339811 0.147102 0.023195
179 0.448667 0.398232 0.0502191 0.343011 -3.50926 0.451906 0.356043 -0.0395232
144 0.501216 0.348757 0.0498241 0.231362 -3.52142 -0.109359 0.481622 0.435792
142 0.550977 0.350329 0.000722286 0.226824 -3.50729 -0.136894 0.126527 -0.141306
181 0.499482 0.396745 0.000918442 0.370784 -3.51036 0.327502 0.77533 -0.167563
183 0.549233 0.400933 0.0526269 0.545043 -3.48978 0.628028 0.126165 -0.907954
146 0.64856 0.348903 0.00346665 0.240742 -3.51849 0.000645275 0.0765169 -0.470455
148 0.599687 0.351891 0.0520658 0.178656 -3.52881 -0.0931395 -0.264422 0.249795
187 0.65125 0.400586 0.054859 0.588507 -3.50608 0.0241639 -0.24862 -0.504408
152 0.696281 0.349314 0.0502854 0.644051 -3.51766 0.507138 0.07 0.0964187
189 0.699458 0.399786 0.00133221 0.0900455 -3.52129 -0.177514 -0.0712989 -0.0253058
191 0.750874 0.399325 0.0493396 0.175122 -3.51421 -0.166484 0.1977 -0.0937592
150 0.748291 0.351276 -0.000561687 0.238786 -3.52159 0.369468 -0.184824 0.376063
156 0.80109 0.350127 0.0493796 0.128654 -3.51733 -0.0252171 0.0264876 -0.148005
193 0.801554 0.400264 -0.00330465 0.452749 -3.50361 -0.47041 -0.315044 0.889929
160 0.89889 0.345822 0.0517041 0.761805 -3.48901 0.186968 0.663402 -0.617433
195 0.850316 0.402394 0.0510352 0.745964 -3.50136 -0.131867 -0.730523 -0.0474465
197 0.901831 0.396753 0.00131519 0.499781 -3.51202 -0.286835 -0.0627791 -0.0835547
158 0.951116 0.347303 0.000186315 0.188652 -3.51792 0.276699 0.0464765 0.173825
199 0.950149 0.39989 0.0506358 0.250321 -3.5049 0.404063 -0.518365 -0.480831
162 0.0507875 0.450867 -0.00185926 0.425781 -3.50417 -0.125044 -0.196642 0.511973
203 0.0509869 0.501217 0.0528072 0.501406 -3.50491 -0.205439 0.0877544 -0.646366
168 0.0987401 0.451388 0.0502065 0.237301 -3.51231 0.125326 -0.351699 0.00336072
172 0.198558 0.450276 0.0487035 0.290901 -3.50076 0.149121 0.15287 0.752209
170 0.250418 0.450859 0.00116796 0.235502 -3.50673 -0.3976 0.371061 -0.294033
176 0.299388 0.446766 0.0492443 0.477599 -3.49301 0.300238 0.741825 0.687645
211 0.249142 0.498702 0.0513466 0.283419 -3.50433 0.106161 0.559255 -0.345433
213 0.30353 0.499426 -0.00126158 0.441804 -3.51385 -0.704509 -0.196809 0.169345
180 0.399961 0.447708 0.0504333 0.404077 -3.49888 0.23367 0.39957 -0.217786
184 0.501236 0.449692 0.0474036 0.430229 -3.51887 -0.351847 0.0537699 0.279188
223 0.552308 0.499228 0.0526539 0.436529 -3.50575 -0.0248208 0.0408444 -0.513025
188 0.605934 0.4489 0.0479654 1.44868 -3.48025 -1.76087 0.171713 0.397783
227 0.647479 0.50174 0.0487953 0.535171 -3.50033 0.796008 -0.231432 -0.50905
192 0.698103 0.451713 0.050995 0.272936 -3.52081 0.247519 -0.159331 -0.316767
196 0.799354 0.449111 0.0494524 0.172183 -3.52504 0.201405 0.0554908 -0.135028
194 0.850412 0.447381 0.000109511 0.394841 -3.50419 0.159348 0.79966 -0.134582
200 0.900027 0.446915 0.0471389 0.521484 -3.50775 -0.00371925 0.677418 0.403677
235 0.852414 0.499466 0.0476638 0.447402 -3.51377 -0.524102 0.121176 0.104297
237 0.897526 0.501114 -0.0030378 0.387594 -3.51992 0.347604 -0.051576 -0.0584804
164 1.0003 0.44993 0.0463725 0.397787 -3.51751 0.0697999 -0.208878 0.210435
198 0.946509 0.449909 -0.00238861 0.424119 -3.50575 0.403663 -0.176063 0.431286
201 0.997446 0.498639 8.13168e-05 0.390551 -3.49353 0.666452 0.589238 -0.161125
204 -0.00211266 0.549342 0.0512919 0.312344 -3.49719 0.588607 0.359666 -0.144485
205 0.103402 0.499195 0.000135614 0.611529 -3.51502 -0.662723 0.341304 0.1813
207 0.148628 0.502301 0.0552796 0.703584 -3.51496 0.100469 -0.232104 -0.551199
208 0.100044 0.549313 0.0495429 0.276508 -3.52664 -0.0583541 0.180779 0.102551
212 0.198497 0.553739 0.051169 0.434289 -3.49011 0.837741 -0.96112 -0.219877
210 0.252331 0.551085 -0.00176558 0.226285 -3.50675 -0.438177 -0.71525 0.436531
216 0.300457 0.549227 0.0477669 0.26591 -3.5165 -0.154297 -0.015912 0.516182
215 0.347146 0.497681 0.0509909 0.553873 -3.50424 0.549891 0.33485 -0.551511
220 0.396983 0.547163 0.049601 0.652723 -3.50398 0.616895 0.415645 0.318876
218 0.452482 0.549868 -9.78039e-05 0.445867 -3.5122 -0.35126 0.20438 0.147406
219 0.451566 0.502418 0.0492752 0.568333 -3.49463 -0.644578 -0.84151 0.114623
224 0.498264 0.546103 0.0512737 0.56151 -3.49051 0.534355 0.758568 0.165937
221 0.502318 0.499071 -0.000315227 0.371803 -3.50587 -0.514667 0.0646273 -0.0775566
222 0.547627 0.546997 0.00283764 0.559719 -3.49759 0.145424 0.41736 -0.464705
226 0.64836 0.548703 -0.00187712 0.201437 -3.52091 0.0267663 0.0881938 0.24172
228 0.600965 0.550122 0.0528142 0.590244 -3.51224 -0.341969 0.0405215 -0.457603
232 0.700399 0.551479 0.046857 0.346094 -3.51438 -0.275417 0.0278592 0.592099
230 0.749097 0.551168 -9.18839e-05 0.162021 -3.51436 0.250955 0.0689082 -0.191242
231 0.74959 0.498457 0.0504545 0.302459 -3.52454 -0.0164432 0.453592 -0.225182
236 0.799079 0.552508 0.04647 0.42087 -3.49421 0.0983388 -0.266277 0.673437
234 0.848558 0.550863 0.000592187 0.275683 -3.51331 0.103958 0.48176 -0.650708
240 0.898479 0.551237 0.0485825 0.193699 -3.52294 0.102746 -0.132605 -0.142996
239 0.948426 0.498973 0.0463286 0.296842 -3.51868 -0.262988 0.00742886 0.605718
243 0.0498602 0.601352 0.0510522 0.226142 -3.5045 -0.266151 -0.380369 -0.4452
247 0.150662 0.599161 0.0509362 0.212109 -3.50409 -0.633086 0.486221 -0.116437
248 0.096292 0.649932 0.0509531 0.80292 -3.47708 1.37053 0.152035 -0.172305
252 0.199456 0.646457 0.0531424 0.480842 -3.51485 0.24701 0.425563 -0.237531
251 0.252039 0.599103 0.0484962 0.324787 -3.51982 -0.13207 -0.0531997 0.40928
256 0.299753 0.648523 0.0501742 0.121936 -3.50661 0.482091 0.231988 0.0658373
255 0.352586 0.599523 0.0514507 0.512031 -3.51655 -0.281751 0.110364 -0.278354
257 0.39853 0.599379 -0.00288901 0.501443 -3.49354 0.613179 0.451684 1.18855
260 0.400924 0.653785 0.0490905 1.18117 -3.48496 0.182065 -1.39471 0.106166
259 0.447287 0.59444 0.0516606 0.948586 -3.49179 0.269709 0.541035 -0.350761
261 0.499195 0.601734 0.00171889 0.707519 -3.49043 -0.00324766 -1.00166 -0.124532
264 0.496915 0.64807 0.0504363 0.354567 -3.50752 0.327677 -0.074464 0.337035
262 0.550066 0.648919 0.000588249 0.40239 -3.49686 0.181999 0.242211 -0.205448
263 0.54781 0.59831 0.0465922 0.815563 -3.48679 0.298293 0.343467 1.30123
265 0.598243 0.593813 -0.000150599 0.965327 -3.50068 0.195955 0.912445 -0.0301767
266 0.646775 0.652203 -0.00271949 0.497158 -3.50834 0.0478126 -0.652903 -0.162909
267 0.649269 0.599737 0.0481351 0.135595 -3.52048 0.206256 -0.0631699 0.00602681
268 0.599537 0.646656 0.0475149 0.520048 -3.51552 -0.0792397 0.27922 0.217177
269 0.697576 0.600114 -0.00283703 0.163511 -3.52172 0.218583 0.220238 0.105157
272 0.698153 0.648396 0.0463273 0.26277 -3.51066 -0.106825 0.486699 0.219189
271 0.748084 0.603902 0.0488795 0.490577 -3.51509 0.37271 -0.416161 -0.156592
276 0.8008 0.651904 0.0485448 0.211433 -3.50072 -0.0819262 -0.193605 -0.0482412
275 0.845965 0.601998 0.0505316 0.591716 -3.51405 0.416861 -0.159624 0.0402996
277 0.898186 0.60136 0.00158024 0.375157 -3.50616 -0.09807 -0.147122 -0.664176
280 0.89632 0.650272 0.0479721 0.405907 -3.51819 0.288359 0.434658 0.425266
244 0.999799 0.646669 0.0513296 0.546722 -3.51055 0.185412 0.520434 -0.239784
278 0.948482 0.649092 0.00199061 0.336732 -3.52268 0.0824061 0.155246 -0.535323
279 0.949117 0.600077 0.0488353 0.189521 -3.5222 0.123254 -0.0683301 0.0692949
283 0.0525797 0.699326 0.0532469 0.551821 -3.50535 -0.618643 0.373497 -0.318957
282 0.0477965 0.749392 0.00172004 0.226775 -3.52309 0.302218 -0.197573 0.138876
287 0.153667 0.703184 0.0514551 0.96336 -3.4791 -1.16969 -0.928151 -0.0729107
289 0.200564 0.697034 0.00217033 0.493747 -3.50493 0.506843 0.82309 0.0345066
292 0.201888 0.748661 0.0531523 0.339763 -3.49497 -0.037083 0.260842 -0.835419
291 0.249602 0.697551 0.052988 0.255316 -3.52226 0.291354 0.194452 -0.45226
295 0.352314 0.697875 0.0513399 0.347433 -3.50253 -0.992106 0.561868 -0.277416
297 0.397492 0.700567 0.000180935 0.553481 -3.48573 1.70831 -0.307785 -0.0162888
294 0.352079 0.749785 -0.00157332 0.24742 -3.49796 -0.635312 -0.13888 0.927438
300 0.399598 0.747344 0.0516152 0.245701 -3.51738 0.0028223 0.0411635 -0.143535
299 0.451008 0.698523 0.0511856 0.300292 -3.50702 -0.301347 0.316724 -0.323974
301 0.496677 0.697343 -0.00156625 0.650982 -3.43424 0.825629 0.442598 0.926504
303 0.5491 0.697119 0.0481135 0.425932 -3.5212 -0.118378 0.36059 0.409596
302 0.544477 0.749177 -0.00250846 0.927643 -3.50022 0.559401 -0.21736 -0.046295
305 0.597915 0.701866 -0.00173455 0.46915 -3.51675 -0.229536 -0.304258 -0.393814
307 0.64711 0.698532 0.044863 0.49579 -3.50444 0.214597 0.348377 0.773169
311 0.750759 0.697072 0.0455588 0.529591 -3.50584 -0.363561 0.353271 0.710065
312 0.700943 0.746976 0.0481985 0.486374 -3.50267 -0.583342 0.375025 0.199558
315 0.84755 0.701211 0.0488307 0.334716 -3.51016 0.166226 -0.243178 -0.502939
281 0.999793 0.69891 0.00238307 0.246778 -3.50299 0.362324 0.0312126 -0.362796
319 0.952396 0.699791 0.0484926 0.457206 -3.51333 -0.588178 -0.254873 0.309079
284 -0.00185747 0.750104 0.0529752 0.365561 -3.50537 0.574213 -0.0410387 -0.566617
323 0.0439931 0.802326 0.0499312 1.01078 -3.50063 1.07308 -0.58335 0.201894
288 0.0982501 0.751938 0.0513161 0.27665 -3.50665 0.109119 -0.376663 0.00357425
327 0.1514 0.800891 0.0498393 0.171195 -3.50643 -0.224917 0.033087 0.345414
296 0.302212 0.74989 0.0527481 0.375883 -3.51455 -0.0808003 -0.200796 -0.170568
331 0.253889 0.799453 0.0493692 0.580403 -3.51593 -0.444044 0.0385762 0.137902
333 0.303691 0.799681 -0.00198966 0.426158 -3.5221 -0.23261 0.169706 0.409749
335 0.350691 0.796847 0.0503165 0.26448 -3.50361 -0.210975 0.348786 0.14025
298 0.451727 0.750769 0.000923277 0.326672 -3.50327 0.31908 -0.702287 -0.0893508
339 0.445373 0.800708 0.05184 0.701143 -3.4998 1.02602 -0.0875363 -0.373882
304 0.502242 0.750241 0.0520955 0.675141 -3.50216 -0.480872 0.208437 -0.592702
343 0.551539 0.801298 0.0488673 0.373018 -3.51712 -0.1589 -0.0182759 0.0362388
308 0.595297 0.748943 0.0491228 0.57817 -3.48851 1.06245 0.574948 -0.00299604
347 0.646664 0.798695 0.0512013 0.506697 -3.50299 0.353202 -0.00297921 -0.307203
351 0.748286 0.798024 0.0470286 0.369448 -3.48533 -0.097761 0.478756 0.786763
316 0.796601 0.749429 0.0492291 0.356216 -3.51834 0.21329 -0.172192 -0.193146
320 0.901189 0.748218 0.0479919 0.256872 -3.51205 -0.250742 0.333294 0.207369
355 0.848627 0.80147 0.048817 0.362091 -3.50987 0.220039 -0.545252 -0.154808
321 0.999732 0.79857 0.000888728 0.239673 -3.51584 -0.457721 -0.0863144 -0.434761
318 0.948556 0.749343 -0.000762487 0.226816 -3.51742 0.570924 0.217612 -0.244239
359 0.949678 0.797057 0.0521844 0.306461 -3.51442 0.0996825 0.269686 -0.296611
322 0.048017 0.848867 -0.000446614 0.259667 -3.51747 0.250971 0.132578 0.323198
324 -0.00497598 0.848554 0.0500528 0.616996 -3.49491 0.613253 0.138904 0.262351
363 0.04498 0.902018 0.0496829 0.724202 -3.49605 0.570661 -0.857876 -0.033593
328 0.0997369 0.851169 0.0480972 0.252094 -3.50572 -0.300803 0.126143 0.306971
365 0.101443 0.900331 0.00141831 0.449362 -3.50419 -0.710427 0.0819057 -0.164754
367 0.153363 0.900313 0.0486192 0.421386 -3.51032 -0.512288 0.0113765 0.525449
332 0.202849 0.853327 0.050996 0.583545 -3.51142 -0.0960016 -0.842033 -0.0633583
371 0.248867 0.900396 0.0486878 0.359215 -3.50895 0.298432 0.586934 0.191398
330 0.25314 0.848417 0.00143963 0.607195 -3.51009 -0.481839 0.296046 -0.574239
336 0.299483 0.85043 0.0511975 0.197314 -3.49911 0.430777 -0.285323 0.0197049
334 0.354063 0.848107 -0.00244875 0.757932 -3.5001 -0.491472 0.141424 0.352395
340 0.397598 0.850539 0.0518409 0.345598 -3.52089 -0.00287677 -0.134124 -0.520299
375 0.34744 0.898571 0.0508163 0.328664 -3.51142 0.170706 0.179058 -0.0363956
377 0.398984 0.902889 0.00207043 0.65788 -3.47786 0.514412 -0.64776 -0.938648
379 0.450425 0.900409 0.0472183 0.517186 -3.50881 -0.0152851 -0.0243439 0.655366
344 0.499942 0.848013 0.0476008 0.463882 -3.51791 -0.489683 0.244184 0.38019
383 0.547495 0.896215 0.0481752 1.02767 -3.51123 0.495109 0.691417 0.250444
348 0.599704 0.852644 0.0480508 0.429674 -3.50702 0.0839869 -0.177066 0.137454
387 0.651033 0.90115 0.0527585 0.453316 -3.48249 -0.0651596 0.311608 -0.711281
352 0.698705 0.853408 0.0502334 0.266647 -3.49259 0.233905 -0.682416 -0.24277
391 0.747476 0.900672 0.0496182 0.364503 -3.51763 0.156256 0.196206 -0.000573224
356 0.799219 0.850396 0.0488995 0.202668 -3.50276 -0.297258 -0.0158431 -0.284253
360 0.90119 0.848078 0.051484 0.387545 -3.51154 -0.132757 -0.147216 -0.0584764
395 0.851371 0.898946 0.0489924 0.414117 -3.51263 -0.456701 0.149277 0.264245
399 0.947258 0.89746 0.0510717 0.300934 -3.49601 0.29693 0.224441 -0.377704
3 0.0480604 0.997258 0.0496957 0.252993 -3.52308 0.14783 0.138446 0.292141
364 -0.00358406 0.952537 0.052741 0.692638 -3.51312 -0.000290665 -0.599227 -0.535966
5 0.100819 0.997286 0.00342946 0.69046 -3.50765 -0.364029 -0.086643 -0.839699
7 0.149994 0.998553 0.0520498 0.270809 -3.50065 -0.169933 0.09952 -0.346456
366 0.152527 0.95043 -0.00299126 0.676191 -3.50639 -0.489997 0.0584585 1.09007
368 0.0983835 0.945285 0.0514529 0.625678 -3.49606 0.469306 0.905034 -0.205895
11 0.246395 0.999465 0.0533952 0.722545 -3.50953 0.785612 0.539528 -0.0809756
372 0.200876 0.95191 0.047409 0.511627 -3.49098 -0.198606 -0.66635 0.722983
13 0.296576 0.999105 0.00210801 0.388782 -3.51296 0.184784 0.276975 -0.501472
370 0.246764 0.952223 -0.000107111 0.469015 -3.49839 0.492925 -0.4064 -0.0870465
376 0.296565 0.952091 0.0529919 0.57321 -3.51841 0.15529 -0.290079 -0.631864
15 0.348193 1.00049 0.0479889 0.265976 -3.51869 -0.0545131 0.310502 0.301959
380 0.398157 0.952363 0.0508188 0.466264 -3.47844 0.412895 -0.84724 -1.04425
21 0.499321 1.00172 -0.00104044 0.374143 -3.50709 0.603814 0.306458 0.175449
378 0.455343 0.951495 0.000747281 1.0518 -3.46212 -1.95707 -0.493434 -0.311277
384 0.504437 0.949935 0.0520488 0.965958 -3.49637 -0.992502 -0.127769 -0.483254
23 0.550411 1.00122 0.0519277 0.185948 -3.50696 0.311209 0.049943 -0.343962
388 0.60202 0.948239 0.0495562 0.660362 -3.50583 -0.403194 0.492763 0.182309
392 0.702176 0.954681 0.0515673 0.407355 -3.49359 -0.958928 -0.224184 -0.467818
31 0.749886 1.00314 0.0513758 0.299656 -3.50711 -0.0526913 -0.104817 -0.536707
396 0.803808 0.951558 0.0506134 0.909038 -3.51074 -0.626956 -0.392052 -0.33132
400 0.896682 0.95199 0.0506387 0.59832 -3.50016 0.797946 -0.448817 -0.77996
39 0.947801 1.00231 0.0498765 0.346634 -3.49979 -0.356769 -0.509704 -0.0616328
398 0.947676 0.946918 0.000918513 0.248887 -3.50888 0.0820978 0.315318 0.0471646
402 0.050261 0.0464477 0.100286 0.331015 -3.50793 -0.403726 0.318076 -0.37285
404 -0.000497712 0.0494385 0.149605 0.20197 -3.52213 0.03144 -0.147309 -0.1691
406 0.147602 0.051465 0.099941 0.495339 -3.49675 0.403568 -0.723292 -0.158015
408 0.0969704 0.0476499 0.147448 0.512742 -3.49239 0.735585 0.269836 0.752936
412 0.201052 0.0492454 0.147409 0.512454 -3.50878 -0.275494 0.0577118 0.670396
410 0.250153 0.0516824 0.101637 0.529447 -3.50145 -0.213481 -0.688653 -0.279673
413 0.300431 -0.00125218 0.101696 0.260953 -3.50362 -0.0190742 0.198297 -0.0135835
416 0.297595 0.0438915 0.152829 1.29923 -3.50073 0.398602 0.767441 -0.326931
414 0.350567 0.0499575 0.101783 0.308233 -3.50853 -0.122399 -0.488704 -0.410845
420 0.401613 0.0458821 0.150921 0.471911 -3.50709 -0.410508 0.867647 0.0981928
418 0.445315 0.0502436 0.0999209 0.821112 -3.48327 0.978046 -0.564039 -0.296539
424 0.49986 0.0464529 0.152205 0.69633 -3.49735 -0.00119252 0.757657 -0.2015
422 0.548995 0.0506482 0.10059 0.140278 -3.52174 0.118197 -0.015908 0.41165
423 0.550602 -0.00154293 0.152324 0.253415 -3.50443 -0.194227 0.26328 -0.0965159
425 0.602299 -0.000756503 0.100984 0.370205 -3.51589 -0.556521 0.380918 -0.0221376
426 0.651643 0.0482749 0.10189 0.428607 -3.52215 -0.198636 0.160235 0.0223927
428 0.599386 0.0498624 0.150784 0.189559 -3.52609 0.00742455 -0.285065 -0.0196513
429 0.702571 -0.00093218 0.10284 0.603601 -3.51185 -0.646743 0.672081 -0.233125
432 0.699763 0.0515 0.150608 0.14409 -3.51935 -0.176427 -0.405404 0.0955381
430 0.749745 0.0500192 0.101373 0.215245 -3.53105 0.0712406 0.280163 -0.110764
431 0.750027 0.00193783 0.150895 0.175261 -3.52412 0.229184 -0.0102212 0.109025
433 0.797829 -0.00111589 0.0979106 0.521262 -3.48327 0.900024 0.655152 0.637294
436 0.799655 0.0538069 0.150551 0.804384 -3.50126 -0.279436 -1.08891 -0.0699988
434 0.848704 0.0492584 0.0997315 0.202703 -3.52252 0.247903 -0.22671 -0.127381
435 0.843579 -0.00264006 0.149137 1.27951 -3.49364 0.8863 0.57161 -0.17072
437 0.896615 -0.00271866 0.0992852 0.366902 -3.49988 0.751902 0.762721 0.391872
440 0.900556 0.0468988 0.147633 0.439035 -3.5058 -0.399354 0.228207 0.57282
438 0.946346 0.0496112 0.0987356 0.432905 -3.49962 0.517424 -0.0139226 0.410312
441 0.00210243 0.100467 0.0996494 0.460345 -3.51246 -0.499749 -0.449543 0.236242
442 0.0513082 0.147094 0.102759 0.557898 -3.50473 -0.15701 0.136537 -0.560257
443 0.0504155 0.0960957 0.150492 0.353107 -3.52127 -0.0481517 0.345302 -0.0202782
445 0.10139 0.098619 0.0979117 0.261436 -3.50213 -0.56006 0.131653 0.313442
446 0.150025 0.147842 0.0991898 0.186308 -3.51656 0.376681 0.10981 0.134406
447 0.151902 0.0990648 0.152617 0.735787 -3.50138 -0.857256 -0.205891 -0.321701
448 0.10091 0.14928 0.146215 0.693581 -3.49561 0.000234198 -0.211814 1.07302
449 0.196595 0.0957694 0.100266 0.886458 -3.49065 0.565953 1.1952 -0.0316931
452 0.198811 0.149622 0.151551 0.170545 -3.51409 -0.164033 -0.0443858 -0.557739
450 0.249889 0.147491 0.101419 0.226486 -3.50025 -0.618805 0.418732 -0.108293
451 0.250153 0.101234 0.149501 0.427893 -3.51651 -0.165717 -0.368989 0.421339
453 0.299747 0.0962088 0.102526 0.477403 -3.50613 0.3121 0.358667 0.0993817
456 0.300391 0.149979 0.150489 0.209149 -3.51837 -0.0874761 -0.0117946 0.184869
454 0.350938 0.150629 0.103429 0.304122 -3.5053 0.141991 -0.238504 -0.071629
455 0.350121 0.0961158 0.149471 0.370845 -3.50734 0.263246 0.390438 0.287214
457 0.400916 0.0984983 0.100951 0.179165 -3.50214 -0.170068 0.476718 0.0547154
460 0.398607 0.147579 0.15264 0.559837 -3.49679 0.389201 0.680877 -0.411937
458 0.451209 0.150612 0.102452 0.200323 -3.51923 -0.631025 -0.208169 -0.205333
459 0.451251 0.099175 0.153222 0.40531 -3.51817 -0.383906 -0.0446296 -0.267132
461 0.497445 0.0994392 0.102106 0.319784 -3.49543 0.53687 -0.289756 -0.149539
464 0.50062 0.147469 0.149209 0.502649 -3.51938 0.0922074 0.613033 0.46871
462 0.549162 0.147376 0.0998297 0.384133 -3.51609 0.0881088 0.340176 0.292585
463 0.553162 0.100102 0.154284 0.693363 -3.4952 -0.604686 -0.332841 -0.865762
465 0.599566 0.100712 0.1028 0.20621 -3.51869 -0.133532 -0.169194 -0.228184
466 0.650693 0.149095 0.100994 0.149207 -3.52699 -0.16067 0.130107 -0.277188
467 0.648797 0.0986058 0.14954 0.228828 -3.52101 0.167527 0.0995684 0.305071
468 0.602043 0.148367 0.151234 0.226359 -3.51871 -0.124192 0.539792 0.0648971
469 0.699733 0.100052 0.100368 0.20189 -3.52399 0.0128252 0.124285 -0.152946
472 0.697077 0.15209 0.150073 0.30566 -3.51152 0.402253 -0.215976 -0.111101
471 0.74445 0.100659 0.15118 0.90202 -3.50227 0.884675 0.416319 -0.163523
470 0.753137 0.150328 0.0986717 0.573115 -3.5111 -0.375651 0.105326 0.604455
473 0.801966 0.0989828 0.103229 0.640004 -3.48464 -0.199044 0.639597 -1.02228
476 0.801226 0.148734 0.149907 0.210808 -3.51008 -0.263804 0.233761 0.029393
474 0.851764 0.148132 0.100354 0.186631 -3.49942 -0.584055 0.494065 -0.087407
475 0.852122 0.0978651 0.148887 0.450565 -3.50293 -0.230269 0.213204 1.02378
477 0.89799 0.101937 0.101302 0.539221 -3.4903 0.395791 -0.545715 -0.232366
480 0.900627 0.150238 0.151656 0.302075 -3.51688 -0.180159 0.18735 -0.188422
444 0.999057 0.147693 0.14873 0.264619 -3.51131 0.108607 0.383997 -0.154698
478 0.947666 0.14911 0.0981907 0.383182 -3.51109 0.456102 0.134066 0.628789
479 0.950484 0.0972587 0.152003 0.544161 -3.5089 -0.140306 0.153857 -0.891034
481 0.00338942 0.199248 0.0979965 0.80441 -3.48502 -0.84675 -0.62857 0.639853
483 0.0502042 0.199202 0.150679 0.174801 -3.51671 -0.362141 -0.259053 -0.265666
485 0.101315 0.197717 0.096681 0.615221 -3.47889 0.375543 0.487772 1.17501
487 0.145657 0.199419 0.149891 0.776803 -3.49048 1.23875 0.0870638 -0.67224
486 0.151884 0.250759 0.0992618 0.410434 -3.48125 -0.31328 -1.2444 0.664442
489 0.199195 0.202676 0.101282 0.542204 -3.4937 -0.429682 -1.11768 -0.302156
491 0.246894 0.199218 0.149049 0.389277 -3.50811 0.700868 -0.000735174 0.430526
492 0.199962 0.250258 0.149782 0.183004 -3.4601 -0.0263897 -0.485544 -0.606541
490 0.248716 0.24816 0.100956 0.195257 -3.51551 0.299083 0.679358 -0.128245
493 0.300148 0.201571 0.102982 0.367382 -3.52415 -0.0566767 -0.341545 -0.0276835
496 0.298687 0.249925 0.152232 0.107333 -3.51883 -0.0442548 -0.0307912 -0.210725
495 0.346981 0.201011 0.15511 0.879655 -3.49362 0.99029 -0.495377 -0.878714
497 0.402538 0.201851 0.100936 0.511835 -3.49909 -0.627987 -0.508521 0.720894
499 0.45153 0.19873 0.151867 0.323294 -3.4803 0.229476 0.695895 -0.331687
498 0.448287 0.255168 0.100914 0.740149 -3.50061 0.388815 -0.784579 0.509779
501 0.498874 0.199389 0.10215 0.263801 -3.49739 -0.107238 0.481919 0.0695237