ITEM: TIMESTEP
2250
ITEM: NUMBER OF ATOMS
4000
ITEM: BOX BOUNDS pp pp pp
1.9434428950070233e+00 3.4156557104992906e+01
-1.0284235299348232e+00 3.7128423529934722e+01
-1.0049668137117287e+00 3.7104966813711620e+01
ITEM: ATOMS id xs ys zs c_csym c_peratom fx fy fz
3 0.0500285 1.00111 0.0552019 5.53801 -3.43832 -0.0565006 -0.383216 -0.0502435
8 0.0960562 0.0520357 0.0556643 4.90573 -3.50356 0.319809 0.439182 -0.165725
7 0.141052 0.998103 0.0597925 5.60982 -3.46341 0.754019 -0.14253 -0.663189
6 0.149913 0.0575843 0.00851483 5.1708 -3.50204 -0.464168 0.246866 -0.603267
12 0.18899 0.0537529 0.0607861 4.82505 -3.48865 0.439462 -1.35246 -0.158676
16 0.287626 0.0446037 0.061984 0.738886 -3.49365 -0.356869 0.179873 0.364865
10 0.239448 0.0548736 0.0113765 5.48985 -3.5035 0.666006 -0.380825 -0.0201966
20 0.391811 0.0459979 0.0645381 0.583818 -3.48244 0.345072 0.550782 -0.755928
14 0.336741 0.0509888 0.0145028 1.05023 -3.4791 0.214866 0.0577312 -0.473856
17 0.394264 0.0032061 0.00770496 0.612213 -3.49289 -0.240484 0.152127 0.691813
19 0.450811 0.0036409 0.060528 0.786792 -3.44323 -0.954969 0.0433073 -1.80427
18 0.440026 0.0536662 0.0098092 0.292771 -3.49472 0.373404 -0.555903 0.441831
24 0.496618 0.0531351 0.0554344 0.456028 -3.49911 1.02972 0.427073 0.378671
23 0.555051 0.0120094 0.0518541 0.32417 -3.4979 -0.0027462 -0.162253 0.571162
21 0.496067 0.00606336 0.00278495 0.783845 -3.49541 -0.363477 1.3042 0.29036
22 0.54583 0.0561557 0.000842672 0.83557 -3.4536 0.320339 1.19871 1.67463
28 0.604759 0.0616029 0.049162 0.397248 -3.49563 0.0316737 0.165129 0.459634
25 0.603471 0.0171877 0.00228631 0.418064 -3.50342 0.285507 -0.501854 -0.892978
26 0.657447 0.0674914 0.998136 0.780681 -3.47257 -0.737616 -0.886246 0.780063
27 0.659764 0.0142015 0.0474343 0.314823 -3.48742 0.0564255 0.659972 0.0385897
32 0.712033 0.0635541 0.0508017 0.579138 -3.50155 -0.411901 -0.0327924 -0.913708
29 0.709579 0.0175494 -0.000835917 0.213553 -3.50023 -0.131217 0.255093 -0.44918
31 0.759691 0.0128896 0.0483476 0.207497 -3.50279 0.161301 0.0857598 -0.130491
30 0.755095 0.0669685 0.99531 0.706106 -3.47292 0.915075 -0.0987899 0.301201
36 0.808882 0.0624478 0.0449609 0.365611 -3.50438 -0.038866 -0.232603 0.316275
35 0.853929 0.0112828 0.0465234 0.585826 -3.48517 0.833172 -0.215662 0.118746
40 0.907022 0.0583157 0.0498828 5.60818 -3.49277 0.0386636 0.109102 -1.04779
37 0.909165 0.0140608 0.995559 0.312124 -3.48194 -0.927008 0.124817 0.00879743
4 0.0038964 0.0582785 0.0507082 5.40321 -3.48161 0.0789872 -1.34099 -0.694068
39 0.954311 0.00719236 0.0451538 5.46316 -3.51583 0.431782 0.217628 0.90751
43 0.0521661 0.108396 0.0492746 5.55535 -3.4963 0.0315104 -0.344059 -0.250134
44 0.00661523 0.164425 0.0405465 4.85326 -3.47111 -0.15965 0.0180823 0.558035
47 0.145942 0.106382 0.0560915 5.59462 -3.51494 -0.0462773 -0.369696 -0.0910218
48 0.100252 0.158693 0.0506029 0.275599 -3.49792 0.109607 0.509047 -0.319758
46 0.153539 0.163847 -0.000127038 0.166141 -3.51301 0.0490977 -0.113744 0.130154
49 0.198538 0.109318 0.00955185 4.83253 -3.51673 -0.178842 -0.166592 -0.673508
52 0.190557 0.156976 0.0554585 5.55212 -3.47191 1.11133 -0.49748 -0.0455256
51 0.242064 0.101268 0.0613201 0.198514 -3.47246 -0.342938 -0.0775069 -0.184875
50 0.246969 0.157796 0.00825916 5.20372 -3.5183 0.127409 0.141385 -0.310366
56 0.289989 0.150273 0.0614425 0.256905 -3.49704 0.436873 -0.298168 -0.398105
53 0.292859 0.105956 0.010777 5.22054 -3.51626 -0.127324 -0.477648 0.324552
54 0.339942 0.154203 0.0105982 5.02436 -3.45028 1.47053 -0.294388 1.21606
55 0.338637 0.0934552 0.0634649 0.682377 -3.49523 -0.185976 0.591631 -0.0483405
60 0.388076 0.145386 0.0630926 0.379839 -3.4964 -0.337749 -0.49767 0.194226
57 0.388123 0.0982543 0.0131052 0.877805 -3.44302 -0.0101985 1.18239 1.23012
58 0.438802 0.150022 0.0161779 1.22747 -3.50105 -0.102364 -0.540246 -0.566085
59 0.442098 0.0971526 0.0645764 0.550196 -3.50709 -0.103295 0.3721 -0.802676
64 0.492812 0.149408 0.0592765 0.190709 -3.51224 0.0483312 -0.279838 0.297528
61 0.494904 0.102642 0.00855807 0.44464 -3.49352 -1.44713 0.809418 -0.151727
63 0.54888 0.104403 0.0556826 0.273966 -3.4811 0.351355 -1.05233 -0.361011
62 0.543765 0.154408 0.00670058 0.162093 -3.4703 -0.520905 0.153048 -0.779748
68 0.599088 0.153092 0.0512248 0.389686 -3.49041 0.0252045 -0.331616 1.07134
65 0.598495 0.109336 0.00146022 0.180263 -3.51537 -0.191915 -0.491246 0.211685
67 0.660197 0.109952 0.0495862 0.614194 -3.50197 -0.856902 0.0044726 0.22454
66 0.648149 0.157654 0.00316022 0.319055 -3.5038 0.662947 -0.190315 -1.07178
72 0.706858 0.157494 0.0494909 0.127567 -3.47145 0.843575 -0.0676802 0.532018
69 0.705856 0.112647 0.999699 0.180631 -3.46349 0.317239 0.265407 -0.587425
71 0.759851 0.110284 0.0479618 0.138792 -3.48899 0.208822 0.328325 0.0101983
76 0.806111 0.161967 0.0454416 0.474426 -3.47205 1.50188 -1.2575 -0.111403
75 0.861588 0.109283 0.0471524 0.650417 -3.4643 -0.308523 0.404409 -0.348927
80 0.907858 0.161061 0.0418972 0.320389 -3.49286 -0.101622 0.320505 0.265133
79 0.958623 0.109622 0.0445994 0.235979 -3.50048 -0.103821 0.124688 0.0979791
83 0.056001 0.217508 0.0403907 5.5383 -3.46215 0.157597 0.193921 0.320191
87 0.149287 0.209161 0.0478587 0.320086 -3.46657 0.216605 0.0739254 -0.00953479
91 0.246041 0.203909 0.0548488 5.58867 -3.51047 -0.168834 -0.245624 -0.095582
89 0.205764 0.212385 -0.00061865 5.23326 -3.51087 -0.219544 0.522524 0.342504
95 0.342739 0.197171 0.0624179 5.25035 -3.50579 -0.343724 0.314442 -0.77355
93 0.299322 0.207305 0.00792253 4.98583 -3.48687 -0.155259 0.199873 -0.489173
100 0.388559 0.24836 0.0578523 4.77203 -3.494 -0.182388 0.114188 0.806155
97 0.392474 0.20215 0.0109822 0.140425 -3.50693 0.0128322 -0.213499 -0.0503267
99 0.437656 0.196475 0.0656327 1.01725 -3.48025 -0.174349 -0.420107 -0.524127
104 0.489371 0.24348 0.0614027 0.314765 -3.50902 -0.0349116 0.305122 0.308348
101 0.488695 0.200147 0.011817 0.504323 -3.50208 -0.363259 0.0646583 -0.193233
98 0.439513 0.250818 0.0106378 4.82456 -3.50714 0.351944 -0.266374 -0.238871
103 0.543009 0.197064 0.056174 0.262642 -3.47495 -0.179571 -0.128884 0.812737
108 0.588916 0.245623 0.0584746 1.5914 -3.46224 2.03265 0.0368548 -0.833694
105 0.592372 0.20101 0.0036777 0.399987 -3.47743 0.722479 1.04676 0.994351
107 0.652954 0.19899 0.0531741 0.623136 -3.4751 -0.875253 1.32922 -0.678052
109 0.70054 0.205289 0.997968 0.485374 -3.50517 0.0863333 0.821852 0.380607
111 0.757951 0.207304 0.0500085 0.383592 -3.44888 -0.641736 -0.745639 -1.12315
115 0.853609 0.209972 0.0404117 0.483591 -3.49999 0.196205 0.127637 0.416163
119 0.956192 0.216036 0.0371701 1.16684 -3.49162 -0.335896 0.0359564 0.703759
84 0.00311354 0.267795 0.039984 0.698329 -3.46507 0.290285 -0.218027 -0.172089
123 0.0608395 0.317292 0.0362752 1.3841 -3.46008 -0.0416143 -0.243176 0.456386
88 0.109354 0.264245 0.0443526 5.56824 -3.50686 -0.30365 -0.0934256 -0.258144
127 0.15987 0.313872 0.043105 4.99995 -3.49301 0.00200086 -0.245412 -0.0670555
92 0.204177 0.259414 0.0516073 5.37532 -3.50209 -0.298006 -0.311611 -1.04712
131 0.251096 0.310531 0.048029 5.11411 -3.49917 0.357836 -0.194347 -0.205122
96 0.295203 0.251996 0.0526887 0.376571 -3.48395 0.139674 0.732693 0.544544
135 0.344504 0.301858 0.0587095 5.02524 -3.47336 0.587825 0.208345 -1.00261
94 0.349811 0.257459 0.00465031 5.17339 -3.50854 -0.569511 0.175784 0.535107
133 0.309473 0.314675 0.00113969 4.87303 -3.48714 -0.489851 -0.370439 0.327136
137 0.400263 0.304125 0.00789531 5.31893 -3.48787 -0.145294 0.707833 0.270495
139 0.438614 0.29435 0.0627331 5.43489 -3.46513 0.413349 0.137822 0.222632
141 0.489988 0.296683 0.0120206 5.21267 -3.44853 0.347445 0.870379 0.56944
143 0.542655 0.293464 0.0588206 0.209626 -3.47371 -0.496543 0.230969 0.675209
102 0.538414 0.250139 0.00890913 0.431092 -3.47849 0.0326334 -0.451965 0.301937
145 0.59329 0.297067 0.011778 1.02347 -3.5014 -0.0206281 0.223017 0.0666022
106 0.646074 0.253607 0.00761429 0.99705 -3.47608 -0.0359137 -1.38279 -0.272231
147 0.650162 0.291867 0.0581484 1.1439 -3.44896 -0.414979 0.778403 0.156157
112 0.703026 0.250948 0.052579 0.199075 -3.42925 -0.118886 -0.800478 -0.451755
116 0.801336 0.256352 0.0481195 0.355605 -3.4811 0.194385 0.32057 -0.0205065
151 0.748352 0.298988 0.0511566 0.459938 -3.47867 0.0648896 0.697698 -0.39623
120 0.898905 0.264818 0.0395413 0.57626 -3.4915 0.208777 -0.203451 0.257501
155 0.842919 0.31126 0.0421815 0.980074 -3.48589 0.292021 -0.594894 0.232965
159 0.9477 0.316352 0.0404821 0.744036 -3.48331 0.165244 -0.171003 -0.0861141
163 0.0555412 0.414183 0.0393978 0.254757 -3.46552 -0.0939544 -0.295315 0.0573411
124 0.00759635 0.363668 0.0405175 0.985509 -3.49744 -0.395927 -0.0995413 -0.0140316
128 0.111187 0.36634 0.0420857 0.726993 -3.45986 -0.619961 -0.314803 -0.646095
167 0.159195 0.414207 0.0387587 0.487119 -3.47063 0.371118 0.616503 -0.155378
165 0.106053 0.414667 0.993546 0.633414 -3.48215 0.84896 1.04714 -1.21026
132 0.206476 0.362742 0.041796 0.262226 -3.51356 0.217735 0.195521 0.050142
171 0.260109 0.414504 0.0405861 0.645365 -3.49657 -0.0166696 0.35243 0.407874
136 0.3024 0.360491 0.0512651 5.28819 -3.51299 0.151845 -0.412938 -0.336949
175 0.357919 0.405797 0.049605 5.3814 -3.48849 -0.350463 0.63722 0.0732551
140 0.396556 0.352369 0.0570288 5.72688 -3.48848 0.697697 -0.737579 -0.524966
134 0.356996 0.361333 0.0039806 5.26856 -3.47997 0.390142 -0.0720602 -0.412987
179 0.449331 0.400436 0.0539176 5.55125 -3.49473 0.0679028 -0.138711 0.0706386
138 0.452818 0.3538 0.00576305 5.54583 -3.47997 -0.433224 0.0796403 0.317954
144 0.495186 0.347687 0.06147 0.793288 -3.46833 -0.307453 -1.02057 -0.0331811
177 0.408375 0.410146 0.996704 5.28947 -3.49817 0.0334278 0.0392201 1.01004
181 0.500469 0.402774 0.00659582 5.34111 -3.49857 0.457703 0.0464082 -0.364548
183 0.546652 0.395915 0.0591071 4.83327 -3.48754 -0.0990717 -0.293425 -0.0749342
148 0.594145 0.342098 0.0599077 0.528622 -3.51089 0.196996 -0.0250884 0.188386
142 0.546912 0.34886 0.00914134 4.97726 -3.47073 -0.380636 0.281602 -0.0758332
185 0.593914 0.400123 0.00347542 0.191002 -3.50425 -0.271559 -0.252736 -0.314234
146 0.63981 0.346937 0.0073671 4.93481 -3.49403 0.161918 0.189775 -0.792114
187 0.638692 0.394116 0.0529607 5.24984 -3.48962 0.608868 -0.116491 0.237417
152 0.693344 0.344214 0.05288 0.252682 -3.49107 -0.113286 0.0324211 -0.210744
189 0.684726 0.402556 0.000280948 5.51976 -3.49223 -0.11368 -0.3789 -0.441828
191 0.737218 0.396839 0.0512761 0.672179 -3.49515 0.0239924 0.216469 -0.4189
156 0.789791 0.352507 0.0443192 0.415412 -3.49182 -0.0417236 0.556175 0.0447226
160 0.89302 0.359236 0.0432631 0.323697 -3.45244 -0.0151938 0.721601 -0.80406
195 0.836723 0.405362 0.0423539 0.416291 -3.47744 0.371277 0.0392584 0.280263
199 0.948628 0.410335 0.0378701 0.751555 -3.47481 -0.788537 -0.741057 -0.552628
164 -0.000690512 0.462195 0.038601 0.720159 -3.49004 0.0013779 -0.601385 0.486294
168 0.107082 0.464538 0.0399259 0.400449 -3.51372 -0.0748206 -0.395609 0.48345
172 0.211391 0.466656 0.0387166 0.764111 -3.50791 -0.0853296 -0.150038 -0.0508118
176 0.318391 0.461679 0.0469335 5.12012 -3.46911 -1.06897 -0.181483 -0.3924
180 0.408267 0.456632 0.0495353 5.41058 -3.51238 -0.0299913 -0.610145 -0.364515
184 0.505004 0.449701 0.0524116 5.19641 -3.5122 -0.42861 -0.161474 0.265993
178 0.460851 0.459443 0.999452 4.68939 -3.49613 -0.55729 -0.290257 0.151966
188 0.596233 0.444581 0.0532244 0.370013 -3.48764 -0.523906 0.162667 0.315659
223 0.550333 0.499573 0.0524325 0.14799 -3.49704 0.174982 -0.0925824 0.146758
225 0.594365 0.507088 0.998144 0.324495 -3.51367 0.012745 0.286756 0.58764
182 0.552408 0.453765 1.00114 0.520082 -3.50608 -0.351059 0.0243978 -0.25904
227 0.636274 0.495479 0.0507921 5.06014 -3.48059 0.475856 0.840374 -0.195172
192 0.687253 0.448135 0.0516466 5.53411 -3.50365 0.0802125 -0.405169 -0.466799
186 0.63903 0.453363 0.997613 4.5256 -3.50463 -0.201152 0.0729248 0.549919
229 0.686289 0.50604 0.999632 4.91602 -3.45379 0.0809524 -0.572128 -0.598731
196 0.782887 0.449005 0.0468726 0.799765 -3.49257 0.127978 0.280837 -0.262509
231 0.736389 0.50033 0.0447349 0.524437 -3.50195 0.158172 -0.181823 0.949236
200 0.892128 0.451201 0.0418814 0.946794 -3.50913 -0.789127 0.992409 0.122893
203 0.0523269 0.50854 0.0421379 0.220169 -3.49195 -0.213269 -0.0182757 0.0671414
207 0.155178 0.515266 0.0435387 0.531861 -3.50563 0.145167 -0.168055 -0.279765
208 0.102637 0.560558 0.0421383 0.462155 -3.49039 -0.0834291 -0.144326 0.31191
211 0.266047 0.514089 0.0427978 0.476817 -3.4559 -0.347489 -0.166769 0.125201
212 0.206722 0.562224 0.0435112 0.264234 -3.50045 0.710323 -0.0460417 -0.0870349
209 0.210977 0.515603 0.992512 0.182149 -3.51942 0.144477 0.177911 0.185475
215 0.36604 0.507929 0.0465404 0.48621 -3.47425 -0.325121 0.291159 -0.185012
216 0.314158 0.562213 0.0484052 0.805592 -3.46523 0.689371 -0.132854 -0.873454
220 0.41069 0.556442 0.0477459 5.34676 -3.4838 0.568138 0.425205 0.409823
219 0.459304 0.502826 0.0502297 5.37759 -3.50451 -0.156144 0.249707 0.193107
224 0.50503 0.554786 0.0526452 0.285278 -3.51327 0.642806 -0.331047 -0.299399
221 0.507513 0.507844 0.000925419 5.04008 -3.47975 0.0167647 0.825617 0.194891
218 0.461626 0.566354 0.000915678 0.729763 -3.50233 0.296894 -0.700076 -0.146063
228 0.590554 0.552827 0.0509697 5.22598 -3.49293 0.499907 -0.499003 -0.0936039
222 0.551313 0.561185 0.998123 0.276957 -3.5069 -0.251835 -0.0823461 0.123918
226 0.640983 0.559693 0.00271974 4.99341 -3.51552 0.0837326 -0.167119 0.0418107
232 0.688635 0.548425 0.0506632 0.48997 -3.47383 0.0180199 0.563604 -0.514566
236 0.785127 0.551794 0.0478938 0.366932 -3.49513 0.211689 -0.581298 -0.484381
235 0.838747 0.500206 0.042762 0.46602 -3.50027 -1.15406 0.423363 0.465008
240 0.887794 0.549996 0.0436561 0.168036 -3.45635 -0.0606102 0.258996 0.154264
239 0.940041 0.505126 0.0389184 0.608369 -3.49092 0.8393 -0.0300508 0.886032
204 0.996782 0.553914 0.0436537 0.256776 -3.50027 -0.585381 -0.268107 -0.00380766
243 0.0444228 0.60232 0.0450621 0.21033 -3.50907 -0.0937611 0.617476 0.0763931
248 0.0976727 0.654893 0.0468555 0.403778 -3.49517 -0.383581 -0.78179 -0.185151
247 0.156333 0.608306 0.044467 0.357026 -3.51494 -0.497291 0.3136 0.0624857
252 0.208819 0.655533 0.0439476 0.569437 -3.49206 -0.639362 0.279369 0.702044
251 0.26418 0.608641 0.0444898 0.397277 -3.46873 -0.0448991 0.818092 -0.405864
256 0.31597 0.660576 0.0459938 0.487759 -3.50428 -0.219447 -0.299797 -0.255185
255 0.366429 0.610749 0.0458778 0.362739 -3.51401 -0.0732995 -0.239212 -0.216664
260 0.413922 0.660242 0.0461155 0.111637 -3.50646 0.0679867 0.237278 0.083323
259 0.462206 0.608632 0.0506634 4.82556 -3.48488 -0.4505 0.171893 -0.534009
264 0.506802 0.661286 0.0488175 5.02173 -3.50885 0.242199 -0.0676249 -0.433462
263 0.549835 0.606492 0.0495634 0.203625 -3.48985 0.0264426 -0.0721111 0.217131
265 0.59621 0.612223 0.00304113 5.06348 -3.47964 0.495638 0.0645004 -1.26922
261 0.50933 0.615066 0.998226 5.17858 -3.50667 -0.325834 0.352423 -0.0327726
262 0.560016 0.667151 0.996921 4.85035 -3.45331 -1.53263 0.241005 1.09334
268 0.599647 0.659268 0.0495364 5.28498 -3.49349 -0.0819087 -0.315895 0.112798
267 0.641358 0.604151 0.0518863 4.66507 -3.48065 0.258136 -0.270539 -0.441163
269 0.687754 0.608846 -0.00039538 5.24253 -3.49276 0.473052 0.488262 0.229607
272 0.693487 0.653543 0.0488354 5.06176 -3.50953 -0.242093 0.256435 -0.362796
271 0.737189 0.600475 0.0475642 0.311002 -3.49474 0.02631 0.186147 0.205631
276 0.792892 0.650489 0.0463716 0.299401 -3.50376 -0.291381 0.0983255 0.180412
275 0.838948 0.598001 0.0482825 0.413406 -3.4904 -0.393618 0.198731 -0.326844
280 0.886204 0.646966 0.0521243 5.06512 -3.46209 0.391915 -0.132807 -1.66063
244 0.986984 0.651155 0.0470809 0.599326 -3.46121 0.83094 -0.275387 0.319659
279 0.941248 0.599933 0.044404 0.307518 -3.50741 -0.568285 -0.325854 0.280593
283 0.0385019 0.696685 0.0495983 0.784418 -3.48975 -0.0947021 1.26623 -0.110697
287 0.146054 0.700806 0.0464268 0.334462 -3.47063 0.598165 0.567376 0.128258
286 0.146026 0.752889 0.9983 0.179447 -3.51419 0.183793 -0.0207517 0.689216
291 0.258753 0.706281 0.0497866 0.408789 -3.51293 -0.27038 -0.381926 -0.323423
292 0.200418 0.749743 0.0498518 0.356298 -3.50183 -0.241871 0.14268 0.0847835
289 0.201955 0.705457 0.996692 0.205218 -3.5207 0.191777 0.095856 0.517495
295 0.365926 0.711936 0.042407 1.4124 -3.36148 -1.2269 1.10964 1.97173
299 0.463171 0.713235 0.0483706 4.62688 -3.50511 -0.491352 -0.0710305 -0.103042
303 0.553496 0.713998 0.0467192 5.2888 -3.48737 0.0439116 -1.01829 0.155415
305 0.600025 0.718423 0.999186 0.363516 -3.47092 1.23857 0.114373 -0.53503
307 0.644974 0.708591 0.049447 5.28014 -3.5006 0.604735 0.127423 -0.412217
311 0.742101 0.704147 0.0483559 0.365275 -3.48661 0.489903 0.301176 0.0928435
315 0.840716 0.702918 0.0460968 0.388668 -3.49446 0.608783 -0.283908 0.26216
320 0.892724 0.752537 0.0493011 5.30984 -3.48156 -0.20765 -0.335749 -0.923219
284 0.986308 0.749009 0.0490605 0.434389 -3.47068 0.364963 -1.15149 -0.601844
319 0.939093 0.698527 0.0501921 0.486496 -3.47332 -0.163173 -0.0780428 -0.550872
288 0.091286 0.750756 0.0466362 0.566881 -3.49509 -0.208311 -0.609621 0.656443
323 0.0375043 0.797276 0.0522032 0.476307 -3.49056 0.070856 -0.0751637 -0.331116
325 0.0921566 0.800545 0.00231585 0.273671 -3.50437 -0.248713 0.439803 -0.343193
327 0.141348 0.798345 0.0535284 0.573857 -3.4799 0.778627 0.0136482 -0.926529
331 0.252192 0.803777 0.0549674 0.530705 -3.51072 0.358575 -0.656206 -0.203596
329 0.19743 0.800192 0.00307179 0.75319 -3.47732 -0.0874788 0.490028 0.415552
294 0.358282 0.766165 0.997742 0.483877 -3.46018 -0.79865 -1.26323 1.05379
296 0.30637 0.757941 0.0529614 0.606261 -3.47762 0.751697 -0.680263 -1.31439
333 0.299117 0.806829 0.00299214 0.380087 -3.50964 -0.194357 0.173194 -0.112675
335 0.356683 0.80676 0.0502239 0.214978 -3.49355 0.68669 0.182723 0.756497
300 0.414634 0.763576 0.0484938 0.710308 -3.4766 -0.182177 -0.0143812 -0.575135
339 0.460796 0.812771 0.0484549 0.280579 -3.50604 -0.312481 0.257152 0.212094
337 0.407208 0.814501 0.999387 0.372738 -3.45423 0.17929 0.162409 0.348991
308 0.602811 0.765017 0.0503677 5.46928 -3.4797 -0.644306 -0.265811 -0.591762
304 0.510494 0.762865 0.0480624 5.26112 -3.47851 -0.333806 0.520044 0.404662
343 0.5572 0.817453 0.0489749 5.04812 -3.48507 -0.225985 -1.04264 -0.605906
341 0.504409 0.821475 0.998587 0.51552 -3.48954 0.405895 -0.556684 -0.56523
345 0.60569 0.820436 0.995566 0.563434 -3.50215 -0.411673 -0.544117 0.384058
312 0.694618 0.757882 0.0474159 5.26944 -3.48694 0.844855 0.150421 0.262893
347 0.654371 0.810798 0.0480827 0.351774 -3.49773 -0.0913427 0.38521 -0.331318
351 0.752177 0.807582 0.0442582 4.95884 -3.47574 -0.376681 0.689368 0.602257
316 0.79656 0.753752 0.0480574 0.346342 -3.50034 -0.168003 -0.0199718 -0.443808
355 0.843822 0.803945 0.0441524 5.42156 -3.48897 0.681578 0.281132 0.716775
359 0.941181 0.798195 0.0481442 0.333692 -3.51118 0.176098 0.650229 -0.290885
363 0.0440003 0.897434 0.0537328 0.233537 -3.49388 -0.202024 -0.0308143 -0.237217
328 0.0903369 0.8485 0.0534524 0.473787 -3.49143 -0.220887 -1.30879 0.133796
367 0.143169 0.891011 0.0607848 1.29343 -3.4817 0.161826 0.186857 -0.31401
332 0.196915 0.846152 0.0534564 0.696389 -3.46099 -0.802324 -0.564272 2.14529
371 0.243583 0.897746 0.0615746 0.443188 -3.50379 1.27636 0.296044 -1.0028
330 0.243831 0.853334 0.00808759 0.432646 -3.4538 -0.188653 0.178461 -0.0974379
369 0.193072 0.901944 0.0128178 0.786492 -3.47149 -0.406055 -0.701343 -1.25945
336 0.305106 0.850065 0.0574184 0.797338 -3.48379 -1.49314 0.58019 -0.404186
375 0.349053 0.900353 0.0578332 0.389936 -3.48586 0.31496 1.35987 -0.453178
373 0.293378 0.900562 0.00909355 0.692038 -3.48743 0.567944 0.328203 0.615132
334 0.353168 0.85431 0.00577601 1.23988 -3.4587 -1.01372 0.76315 0.113456
340 0.406912 0.859269 0.0523639 0.213281 -3.51778 0.0547966 -0.0882028 -0.163684
377 0.397677 0.910143 0.00412481 0.263027 -3.5033 -0.405221 -0.238689 0.636647
379 0.451063 0.910589 0.0530831 0.248008 -3.50047 0.563956 0.0908533 0.12783
344 0.506797 0.865058 0.0481299 0.27862 -3.48852 -0.262783 0.804779 0.615206
383 0.557 0.913776 0.048228 0.203873 -3.47061 0.202648 0.806811 0.324986
381 0.503636 0.918585 0.0020252 0.484074 -3.50535 -0.291338 -0.31641 0.300691
342 0.55214 0.869693 0.997169 0.392984 -3.49076 1.21924 0.613216 -0.0243144
348 0.606292 0.861842 0.0454417 0.430359 -3.48859 0.246439 0.723661 0.173182
385 0.604701 0.918851 0.997287 0.141306 -3.48459 -0.12675 0.300354 0.205242
387 0.657958 0.91568 0.0473537 0.417802 -3.49348 -0.363557 -0.132611 -0.378113
352 0.706324 0.859436 0.0455821 0.494168 -3.49252 -0.651493 0.226977 -0.104231
346 0.654095 0.870928 0.997095 0.5495 -3.50281 0.375069 0.112053 -0.0398156
389 0.706223 0.92096 0.998356 0.409932 -3.50168 0.243598 0.0263008 -0.457375
391 0.756952 0.910477 0.0485616 0.337313 -3.49584 -0.406978 0.271789 -0.226544
356 0.800654 0.858048 0.0436626 0.286965 -3.50365 0.651847 0.346665 0.589465
350 0.75157 0.869497 0.998437 0.950753 -3.48707 0.399507 -0.300062 -1.1893
393 0.806716 0.916905 0.995605 0.43673 -3.47992 -0.531634 0.720452 -0.179281
360 0.897816 0.852106 0.0505449 0.728135 -3.47758 -0.274344 0.27987 -0.81325
395 0.850594 0.908577 0.0429432 0.863977 -3.4715 0.579988 -0.838484 0.902695
324 0.992813 0.847459 0.0506486 0.141047 -3.50331 -0.16437 0.448549 0.050649
399 0.943761 0.903795 0.0516588 0.697918 -3.47522 0.992476 -0.318977 -0.609579
368 0.095781 0.9412 0.0586807 5.29551 -3.46767 -0.155639 1.3814 -0.47354
366 0.143658 0.951633 0.00885157 4.90024 -3.52044 0.175815 0.167415 0.0458598
372 0.187816 0.943888 0.0615654 4.58717 -3.49618 -0.255052 -0.0173438 0.607432
11 0.234071 0.995374 0.065564 4.8129 -3.46133 0.0113864 -0.318094 -0.621978
376 0.291545 0.950388 0.0594082 0.388373 -3.49262 -0.131396 -0.623369 -0.175286
9 0.194 0.00416823 0.0113555 5.28394 -3.50188 -0.167862 0.00980749 0.420811
13 0.287434 0.00139094 0.0102784 0.48337 -3.45972 -0.404176 -0.0442335 0.488739
370 0.238414 0.948758 0.0129308 1.01613 -3.48282 0.734963 0.698081 0.113872
15 0.340927 1.00034 0.059372 0.297747 -3.47454 0.619458 -1.18412 0.752296
374 0.339386 0.954007 0.00878803 0.58826 -3.48544 0.461229 -0.0750437 0.785765
380 0.397715 0.954059 0.0588812 0.285362 -3.49766 -0.485055 0.0195373 -0.526693
378 0.445981 0.959031 0.00283229 0.354725 -3.46855 -0.248232 0.354416 1.18419
384 0.503114 0.962749 0.0524507 0.394358 -3.478 0.992499 -0.936515 0.619036
382 0.554348 0.966651 0.00200286 0.350025 -3.50452 -0.225579 0.283445 -0.496268
388 0.609485 0.966177 0.0464573 0.952918 -3.48074 -0.457721 -0.322694 0.862214
392 0.710466 0.963521 0.0477041 0.31207 -3.49467 -0.307925 0.0809464 0.301276
396 0.805504 0.960506 0.0500205 0.480424 -3.50777 -0.182025 -0.071594 -1.18623
390 0.758252 0.96958 0.997757 0.42618 -3.49964 0.170721 -0.610641 0.326059
400 0.902189 0.958382 0.0494688 0.505368 -3.51589 0.0171497 -0.277476 -0.935833
394 0.855124 0.965616 0.998438 0.356192 -3.49168 0.511265 -0.292616 -0.114092
364 0.998845 0.953295 0.0519514 0.235831 -3.51019 -0.167345 -0.255435 0.322397
402 0.0463078 0.0452337 0.103358 5.14046 -3.49383 0.469686 0.491374 0.23278
408 0.0911138 0.0358738 0.157376 5.23135 -3.51644 -0.17695 0.12213 -0.123667
405 0.0942737 0.99221 0.10441 4.81978 -3.4912 -0.363392 -0.15244 0.979238
406 0.142121 0.041562 0.108859 5.15499 -3.49236 -0.426357 0.560358 -0.182822
412 0.182354 0.0369249 0.160358 4.71161 -3.47349 0.343542 -0.211625 0.297694
410 0.237496 0.041542 0.111964 0.465667 -3.46932 -0.622853 0.0312169 0.0758434
416 0.29323 0.0381545 0.159878 0.532412 -3.48656 -0.765582 0.16578 -0.319935
414 0.342495 0.0428965 0.11188 0.0869033 -3.50563 -0.259369 -0.208 0.0334419
420 0.397677 0.0422137 0.161309 0.221044 -3.49586 0.279839 -0.175738 -0.275345
418 0.451714 0.0474849 0.109121 0.344544 -3.51018 -0.237217 -0.161909 0.340814
424 0.509299 0.0522963 0.160566 1.33548 -3.44881 0.372135 -1.74689 -1.23314
421 0.510029 0.00500387 0.106081 0.563856 -3.50045 -0.0433137 0.321462 0.108948
422 0.558105 0.0581516 0.105149 0.500056 -3.49885 -0.328779 -0.714464 -0.1282
425 0.613949 0.0101197 0.100437 0.619755 -3.49412 -0.109121 0.114917 -0.67515
428 0.616453 0.0526108 0.150384 0.722088 -3.48459 0.0696574 0.927044 0.411876
426 0.662482 0.0611934 0.0985584 0.71934 -3.49917 -0.476067 -0.261187 -0.174816
427 0.665174 0.00361542 0.149551 0.49409 -3.48788 -1.00091 -0.222469 0.469569
429 0.707198 0.00998515 0.0961692 0.560075 -3.49116 0.561328 0.132171 0.840918
432 0.706971 0.0550765 0.149878 0.595924 -3.47648 0.908732 -0.153852 -0.759764
430 0.761736 0.0583075 0.0983615 0.272939 -3.47176 -0.237756 -0.456243 0.0671309
431 0.758521 0.00329288 0.143984 4.79669 -3.50929 -0.115825 0.0353358 0.675582
436 0.810175 0.0524777 0.149307 0.501807 -3.50107 -0.0817544 -0.66812 0.043979
434 0.859218 0.0540301 0.097126 0.182149 -3.49582 -0.363299 0.299698 0.327488
404 0.993455 0.0392482 0.152845 4.96671 -3.48734 0.451564 0.472329 0.176085
401 0.998045 0.999563 0.102347 5.17028 -3.47935 -0.392164 -0.857982 -0.211513
440 0.90347 0.0459426 0.150177 5.27555 -3.51211 0.0153417 0.0253178 -0.190083
438 0.955335 0.0528293 0.0987433 4.83388 -3.51287 -0.350209 -0.612145 0.0523234
442 0.0507572 0.150833 0.0977166 5.70879 -3.48934 -0.236894 0.557442 -0.138399
443 0.0446575 0.0893069 0.151734 5.01299 -3.50595 0.0186461 -0.0349462 0.126993
444 0.0020069 0.146676 0.146855 0.321224 -3.49542 -0.397074 0.587758 0.246579
445 0.0969306 0.0984121 0.103456 0.217065 -3.48222 -0.207919 -0.359129 -0.247287
446 0.144584 0.152899 0.103283 5.33476 -3.48294 -0.558364 -0.783434 0.050946
447 0.134091 0.0868151 0.158176 5.26113 -3.50429 0.721231 0.546717 -0.0661714
448 0.0910543 0.139813 0.151064 0.704072 -3.47524 0.264371 0.884089 0.026122
449 0.187754 0.0978746 0.109359 5.28992 -3.45839 0.226471 -0.802427 -0.307358
452 0.186646 0.140272 0.154588 0.367188 -3.47544 -0.0194022 0.00595882 0.660398
450 0.240353 0.145297 0.108792 0.154831 -3.49535 -0.257201 0.0523444 -0.103905
451 0.235132 0.0874507 0.159125 0.302736 -3.48975 -0.333811 -0.307076 0.175775
453 0.286485 0.0923124 0.111439 0.449947 -3.50173 -0.0122621 -0.680884 0.514252
456 0.285086 0.137228 0.161551 0.576334 -3.43903 0.740861 -0.372879 1.37374
454 0.337115 0.138532 0.113125 0.763233 -3.50411 -0.330183 0.615271 0.149844
455 0.339813 0.0879239 0.16318 0.369561 -3.51183 0.314219 -0.0517958 -0.175246
457 0.391151 0.0924436 0.114089 0.247107 -3.48807 0.024292 0.349027 -0.561494
460 0.391695 0.136905 0.161554 0.206788 -3.49847 -0.244687 0.858028 -0.240597
458 0.442033 0.143947 0.112966 0.177315 -3.52524 -0.0840992 -0.013395 -0.372407
459 0.445648 0.0908648 0.158244 0.547863 -3.50253 0.657892 0.578625 0.744177
461 0.498267 0.0991524 0.108906 0.375869 -3.50395 0.36477 -0.389974 0.0595169
464 0.499946 0.14306 0.157345 0.258874 -3.50954 -0.0949091 -0.389671 0.627475
463 0.559451 0.0977757 0.158671 0.56962 -3.46435 -0.323619 -0.443957 -0.0725253
462 0.551598 0.144443 0.105946 0.758841 -3.48346 -0.197282 1.07482 0.0800021
465 0.608743 0.105438 0.103931 0.411208 -3.47636 -0.103437 -0.201439 -0.761527
468 0.604296 0.147873 0.154046 0.304079 -3.46499 0.354003 0.645656 -0.118861
466 0.657614 0.155435 0.100194 0.445307 -3.49518 -0.263894 0.00265351 0.781059
467 0.659285 0.106639 0.150927 0.772206 -3.49463 0.681241 -0.21364 0.189528
469 0.709363 0.108633 0.10193 0.563401 -3.48794 0.811131 0.454227 -0.174203
472 0.714286 0.15513 0.154203 1.05584 -3.45911 -0.0844525 -0.935127 -0.830241
471 0.762293 0.0998313 0.148756 0.556207 -3.49479 -0.378906 0.866625 0.662224
470 0.765196 0.155476 0.0973111 0.964794 -3.46209 -1.31415 0.72864 0.696333
473 0.809005 0.106658 0.0990063 0.298586 -3.49289 0.661769 -0.428451 -0.579884
476 0.810576 0.150075 0.147621 0.282312 -3.48375 0.518566 0.448935 0.572782
474 0.861563 0.154348 0.0955623 5.27722 -3.49853 -0.398052 0.277607 -0.0369357
475 0.85889 0.0990044 0.148393 5.17176 -3.50431 0.060485 0.085558 0.0436516
477 0.909698 0.104281 0.0976981 0.284596 -3.50416 -0.298255 -0.16288 -0.0426907
441 0.00416971 0.100747 0.0994595 0.231519 -3.48848 -0.395972 0.276115 0.0472179
480 0.907713 0.147981 0.148488 5.31743 -3.50211 0.22459 0.389184 -0.422053
478 0.953487 0.154331 0.094648 5.48732 -3.47683 0.5281 0.359542 -0.185951
479 0.951384 0.0963972 0.151 5.43993 -3.50154 0.295572 -0.0962573 -0.65383
483 0.0469487 0.200158 0.145175 5.52064 -3.45375 0.126373 -0.507369 0.0503235
481 0.00337088 0.20837 0.0920245 4.94586 -3.46294 0.109671 -0.209285 -0.436379
485 0.0969544 0.20304 0.100207 4.91485 -3.43966 0.316539 0.0803722 -1.34866
487 0.142466 0.193179 0.15103 0.217575 -3.47418 0.159363 0.506481 0.396967
489 0.194394 0.199566 0.103919 0.104026 -3.4769 0.334622 -0.0697429 -0.218862
492 0.198267 0.243251 0.149848 5.50155 -3.45881 -0.752557 0.307201 0.609176
491 0.242294 0.185975 0.158933 5.08185 -3.46691 -1.55091 1.24257 -0.761742
493 0.28973 0.19485 0.107606 5.57287 -3.4824 0.0939364 -0.30039 0.317706
490 0.245795 0.247803 0.101955 0.226072 -3.50173 0.228894 0.683113 0.398806
496 0.287901 0.237743 0.155707 0.583173 -3.4923 -0.544466 0.65755 0.404678
495 0.332446 0.188149 0.162964 4.43444 -3.49519 0.494998 -0.717119 -0.02418
497 0.383257 0.189027 0.112346 4.52698 -3.47975 0.360838 0.331151 0.767498
494 0.336082 0.245419 0.108004 5.27069 -3.45273 0.123171 -0.15879 -0.475117
500 0.378857 0.239896 0.156855 4.86881 -3.43053 0.747118 -0.870085 0.789595
499 0.440238 0.190521 0.160528 0.294816 -3.47926 -0.441586 -0.273582 -0.038751
501 0.495516 0.191931 0.111537 0.49954 -3.50344 -0.308068 0.244038 -0.723295
498 0.434777 0.239901 0.110758 0.741152 -3.47589 0.535528 0.551337 0.0404402
504 0.490032 0.237122 0.15664 0.822567 -3.47939 0.910215 0.454364 0.154124
503 0.551939 0.192683 0.155864 0.323778 -3.50623 -0.499362 0.0109131 0.874981
505 0.60011 0.200493 0.106513 0.908623 -3.477 -0.201726 -1.66466 -0.143487
502 0.544176 0.241743 0.108242 0.340007 -3.45854 -0.497682 0.436357 -0.0307947
507 0.655656 0.196739 0.155635 0.35624 -3.51414 0.429333 -0.38819 -0.548479
506 0.655466 0.243038 0.103858 0.70965 -3.47024 -0.577968 0.508466 -0.430283