ITEM: TIMESTEP
4000
ITEM: NUMBER OF ATOMS
4000
ITEM: BOX BOUNDS pp pp pp
3.5314133138091446e+00 3.2568586686190784e+01
-2.1656552149745814e+00 3.8265655214974714e+01
-1.8140628778814509e+00 3.7914062877881406e+01
ITEM: ATOMS id xs ys zs c_csym c_peratom fx fy fz
3 0.0447622 0.0105288 0.0511637 0.258104 -3.47606 0.596956 -0.346666 -0.455192
4 -0.000501607 0.0578641 0.0527203 0.617141 -3.47049 -0.0217354 0.712496 -0.571903
1 -0.00136864 0.0218351 0.997107 0.71847 -3.46785 0.0479397 -0.0499142 1.30282
5 0.0953205 0.0202928 1.00156 0.338219 -3.47897 0.392281 -0.157216 -0.0329448
8 0.100864 0.0619926 0.0504822 0.31519 -3.49019 -0.447868 -0.0782369 0.142152
7 0.144825 0.0117974 0.0510568 0.423497 -3.49406 0.255617 -0.521963 -0.0255212
6 0.150133 0.0722473 0.000938663 0.333597 -3.4907 0.333758 -0.544535 0.295441
9 0.19765 0.0177135 0.00479416 0.622093 -3.47749 0.0592837 0.231742 -0.708293
12 0.201385 0.0570469 0.051328 0.621715 -3.49203 -0.328802 0.793754 0.0836756
16 0.298604 0.0597465 0.0493672 0.318187 -3.50843 0.233445 0.150854 0.552581
10 0.251453 0.0696856 0.000259887 0.287916 -3.50121 -0.47181 -0.258057 0.234357
11 0.250472 0.011322 0.0508387 0.357664 -3.49957 0.038823 -0.700652 0.274947
13 0.299209 0.0176335 0.000744223 0.194379 -3.5096 -0.146983 0.0124924 -0.0746123
17 0.402883 0.0184505 0.00149892 0.252951 -3.45452 -0.509055 -0.244828 -0.197586
15 0.347894 0.00864401 0.0529281 5.01529 -3.4716 0.471881 -0.162598 -0.804361
20 0.396104 0.0550634 0.0504773 4.62559 -3.48574 0.557857 1.14999 0.368437
19 0.451534 0.00621363 0.051017 5.00294 -3.47102 -0.68025 1.83131 -1.15928
24 0.498501 0.0569078 0.0497066 5.38641 -3.50027 0.433637 0.517183 0.545393
23 0.555418 0.0107208 0.0490576 0.542379 -3.47846 -0.977735 -0.475802 0.582378
22 0.548916 0.0694149 0.999372 0.140088 -3.49063 0.169387 -0.182039 0.510844
28 0.603926 0.0586851 0.0508738 0.484065 -3.47298 -0.609241 0.76388 -0.169768
25 0.596605 0.0193917 1.00096 5.26956 -3.47735 0.87204 0.125117 -1.38948
27 0.650645 0.0107795 0.0457767 0.568979 -3.49477 0.579195 0.00750361 0.528289
32 0.700263 0.0610239 0.0481579 0.265752 -3.49815 0.206877 0.428855 0.0466973
31 0.751326 0.0129529 0.0494938 0.167732 -3.48843 0.0125073 -1.04059 -1.1863
30 0.752311 0.0681578 0.998011 0.380762 -3.46397 -0.671995 0.886896 1.11715
33 0.797226 0.0219031 0.998874 5.09429 -3.46671 1.00883 -0.467876 -0.215144
36 0.79921 0.0596092 0.0493042 0.343335 -3.48806 0.321521 0.698205 -0.0148892
35 0.85189 0.010719 0.0486604 0.281313 -3.46819 -0.405877 0.986737 -0.107414
40 0.899889 0.059828 0.0506142 0.220752 -3.51537 0.233753 0.299 -0.301382
39 0.947426 0.00931412 0.0491252 0.254353 -3.50567 0.17126 0.227559 0.257578
43 0.0509208 0.111205 0.0508478 0.136835 -3.50582 0.0288058 -0.0595102 0.352744
47 0.153145 0.110224 0.0500928 0.220207 -3.50624 0.30394 0.107259 -0.00378688
45 0.100094 0.122365 0.999734 5.26252 -3.47677 0.366212 -0.645762 0.387831
49 0.202728 0.121837 0.000449352 0.245468 -3.50703 0.107541 -0.0666083 0.262101
51 0.247574 0.109908 0.0510035 0.388382 -3.49552 -0.170808 -0.403345 0.120264
53 0.302549 0.117458 0.00286563 0.574285 -3.466 -0.702913 -0.196531 -0.998765
55 0.348152 0.109884 0.0514214 0.220514 -3.48871 -0.0460813 -0.857259 -0.0178523
59 0.445819 0.108538 0.0529698 0.221871 -3.50379 0.177161 -0.182614 -0.339693
61 0.499646 0.117738 0.00318964 0.319182 -3.50206 -0.544018 0.255839 -0.452875
63 0.547077 0.109324 0.052635 0.414317 -3.48797 0.21843 -1.00824 -0.556208
67 0.652225 0.10978 0.0502015 5.70496 -3.4412 -0.940268 -1.03175 -0.807633
69 0.699708 0.115946 1.00076 5.25401 -3.46336 0.786991 1.15634 -1.10576
71 0.750367 0.112794 0.0473211 0.703251 -3.47256 -0.0282424 -1.73237 0.436454
75 0.851746 0.110155 0.0501242 0.126577 -3.4938 0.114092 0.837765 0.255805
73 0.801916 0.115076 1.00126 5.20188 -3.47593 0.509723 1.45657 -0.378451
77 0.899852 0.117602 1.0007 0.6113 -3.46408 0.357535 1.0691 0.422633
79 0.950535 0.112112 0.0531039 0.376267 -3.47831 0.260577 -0.219505 -0.960795
41 0.00291045 0.120177 1.00332 0.307249 -3.50468 -0.384817 -0.13998 -0.533703
83 0.0551499 0.210653 0.0507155 4.90347 -3.51918 -0.437847 0.407893 -0.012235
42 0.0515446 0.167251 1.00206 0.512131 -3.47736 -0.0825194 0.775633 -0.167989
48 0.101588 0.159887 0.0516085 0.266381 -3.51428 -0.120119 0.178304 0.454308
46 0.152636 0.16961 1.00315 0.252331 -3.51089 -0.229189 0.254166 -0.689582
87 0.146964 0.211343 0.0520303 0.553112 -3.52362 0.547584 -0.100622 -0.228186
85 0.102652 0.222063 1.001 0.354505 -3.47259 -0.146416 -0.37122 0.0518679
52 0.20157 0.162999 0.0525162 0.537803 -3.50216 0.072222 -0.64648 -0.467022
91 0.250899 0.209569 0.0517236 0.361024 -3.48376 0.249783 0.159568 0.286355
56 0.295854 0.156965 0.051078 0.665179 -3.45568 0.134122 0.650532 0.591945
54 0.346549 0.166498 0.00309543 0.421422 -3.48312 0.36214 0.62136 -0.250354
60 0.39576 0.156497 0.0555261 5.15857 -3.49156 0.076035 0.342885 -0.900073
95 0.341918 0.207981 0.0533332 1.04014 -3.46914 1.33526 0.00602854 -0.478999
58 0.444614 0.164641 0.00258168 0.461382 -3.48659 0.282919 0.786075 0.145421
99 0.444629 0.208152 0.0529245 0.373871 -3.48715 0.438164 -0.436138 -0.288741
101 0.497164 0.216806 0.998285 0.337285 -3.50018 -0.366277 -0.0713733 0.314655
64 0.496721 0.157285 0.0524905 0.205582 -3.50994 0.00772118 0.315432 -0.131017
62 0.546013 0.167683 2.26211e-05 0.179002 -3.50769 0.0117467 -0.20938 -0.0590988
68 0.597511 0.155723 0.0481791 0.444038 -3.487 0.140149 0.573041 0.0629005
103 0.54574 0.209403 0.0480596 0.505915 -3.49389 0.219061 -0.507652 0.117819
107 0.647084 0.203486 0.0502002 5.13831 -3.46785 0.627872 0.803644 -0.639908
72 0.700524 0.157311 0.0479763 5.45617 -3.48132 0.307718 0.794454 0.211411
109 0.703112 0.213962 0.000345631 5.15791 -3.49246 -0.559439 1.03719 0.137518
111 0.752072 0.209685 0.0522051 5.41809 -3.48423 0.141614 -0.726593 -0.910722
70 0.754198 0.168084 0.99881 4.78317 -3.49305 0.246981 0.0981551 0.621905
76 0.801066 0.159908 0.0505384 0.235208 -3.50542 0.543292 -0.0558968 -0.365028
80 0.899117 0.162665 0.0475061 5.0411 -3.48509 0.314769 -0.405531 0.815019
115 0.850205 0.211469 0.0481372 0.31668 -3.50304 -0.167156 -0.320323 0.340099
74 0.849117 0.166662 0.997894 0.840567 -3.50135 -0.353882 0.761426 0.829608
113 0.801306 0.22001 0.999691 0.226968 -3.49192 -0.00439237 -0.271076 -0.1418
117 0.900405 0.217673 1.00017 5.29018 -3.4661 -0.33658 0.202108 0.184159
44 -0.000481625 0.162538 0.0518036 0.261123 -3.49119 0.218541 -0.0799694 -0.399719
119 0.95166 0.213624 0.0514585 5.57112 -3.49562 -0.0231634 -0.681254 -0.60017
81 0.00608902 0.219605 1.00078 0.58167 -3.50505 -0.605838 0.062815 0.333555
123 0.0509492 0.312623 0.0517673 0.102606 -3.50249 -0.0995044 -0.110474 -0.369897
82 0.0477731 0.272602 0.00229352 0.45766 -3.50497 0.505685 -0.22871 -0.202151
88 0.0987693 0.261419 0.0507367 0.215918 -3.50264 0.247479 0.443013 0.305503
127 0.152558 0.312493 0.0521959 0.272368 -3.48737 -0.221008 -0.412049 -0.696962
92 0.200149 0.25789 0.0518825 0.437951 -3.48581 -0.237659 0.459703 -0.565716
131 0.24988 0.31003 0.0532075 5.21395 -3.49203 0.370073 -0.062106 -0.0623121
96 0.30111 0.260112 0.0503727 0.319798 -3.50657 0.116575 0.0439204 0.357208
100 0.399559 0.256851 0.050945 0.242583 -3.48301 -0.466704 -0.0556006 0.00333985
104 0.495977 0.25763 0.049498 5.2046 -3.50956 0.0202031 0.0228976 0.585814
98 0.448955 0.266658 0.00144621 0.23889 -3.4937 -0.181899 -0.0289972 -0.325409
143 0.543357 0.307138 0.0516394 0.604748 -3.48294 0.859864 -0.397245 -0.337828
102 0.546688 0.266358 1.00018 0.114545 -3.52049 0.231358 -0.109178 0.297111
108 0.601493 0.256615 0.0482522 5.16327 -3.49084 -0.563476 -0.0887095 0.342705
106 0.648152 0.264446 0.997726 0.465221 -3.48995 0.604597 0.498448 1.23221
147 0.645996 0.306948 0.0484027 0.316997 -3.48838 0.794003 -0.259158 0.0226525
112 0.699281 0.259299 0.0500053 0.462105 -3.48067 -0.212586 -0.919125 -0.475867
151 0.748332 0.305268 0.0491793 0.35717 -3.4713 0.0620355 0.893157 0.0782837
116 0.798855 0.259681 0.049113 0.149356 -3.49794 0.588736 -0.144287 0.118879
84 0.00234057 0.260904 0.0511703 5.24888 -3.50199 0.178696 -0.00245951 -0.193577
120 0.89821 0.25939 0.0492887 5.48478 -3.49229 0.149254 0.981466 0.176839
159 0.954062 0.310798 0.0493323 4.80399 -3.476 -0.726222 -0.0118459 1.10285
118 0.947841 0.268918 1.00348 0.717497 -3.45462 1.00151 0.0533702 -0.912003
124 -4.67771e-05 0.363927 0.0521146 0.532514 -3.47938 -0.0945905 -0.695443 -0.485311
128 0.100466 0.360915 0.0514621 5.43535 -3.51049 0.202358 0.176365 -0.0862186
133 0.301941 0.319469 1.00179 0.286881 -3.50419 -0.372766 0.360056 0.0713666
132 0.207284 0.359723 0.0521768 5.02947 -3.4937 -0.416213 0.3379 -0.291293
130 0.254219 0.373998 1.0013 0.586095 -3.45239 -0.0291024 -1.66755 -0.664218
135 0.354601 0.30795 0.0507453 0.437381 -3.50834 -0.861931 -0.0719709 -0.132204
136 0.305453 0.358511 0.0508467 0.333555 -3.48513 -0.0827806 0.4379 0.0610816
139 0.445613 0.307029 0.04858 0.349148 -3.49256 0.86725 0.193445 0.544923
140 0.40087 0.358224 0.0481812 0.271422 -3.4866 -0.191611 0.380431 0.795828
144 0.498892 0.357711 0.0503446 0.170444 -3.48074 -0.531214 -0.211399 -0.841717
145 0.598813 0.315272 1.0003 0.324311 -3.48524 -0.294399 -0.0484138 -0.0759989
148 0.595917 0.353943 0.0500917 5.08219 -3.49253 0.118033 0.851098 -0.085223
152 0.700603 0.356628 0.0505067 0.283702 -3.49245 -0.246729 0.0752943 -0.465449
156 0.796885 0.357852 0.0518512 0.274151 -3.49356 0.15767 -0.10188 -0.359534
149 0.696068 0.316452 -0.0016943 5.59773 -3.51931 0.230547 0.0286935 0.51581
153 0.802051 0.319157 -0.00204195 0.450998 -3.48702 -0.312031 0.199393 0.547891
150 0.749384 0.365868 0.00113351 0.278333 -3.49344 -0.202155 0.613511 -0.162358
155 0.84693 0.309779 0.0506118 5.34706 -3.49601 0.658736 -0.268542 -0.383614
154 0.851682 0.36891 0.000739763 0.178825 -3.491 -0.032004 -0.371687 -0.171716
160 0.899553 0.35898 0.0524109 5.42057 -3.5111 0.0834875 0.0685477 -0.330011
121 -0.000598712 0.322515 1.00222 0.263861 -3.45659 -0.298311 -1.30514 -0.878626
163 0.0515674 0.411481 0.0497564 0.281168 -3.48339 -0.397008 0.386009 0.749287
165 0.0968686 0.422308 0.00289938 5.22033 -3.46507 0.981549 -0.144619 -0.723462
164 0.997936 0.462391 0.0516523 5.0728 -3.47781 0.0578377 -1.08172 -0.0271251
168 0.104996 0.461642 0.0497062 5.17438 -3.49184 -0.536661 -0.0615518 0.434264
167 0.151953 0.409735 0.0532655 4.87367 -3.49905 0.0749729 0.275619 -0.470481
172 0.201646 0.461403 0.0512468 0.221097 -3.50603 0.321766 -0.233285 -0.226621
171 0.25471 0.412263 0.0503576 0.206494 -3.49162 -0.157682 -0.343146 0.472048
169 0.200243 0.420332 1.00392 0.630732 -3.49253 0.427223 0.639662 -0.577477
175 0.354931 0.414257 0.0519636 0.980788 -3.47974 0.204483 -0.754743 -0.672093
176 0.301652 0.461433 0.0479786 0.211048 -3.50469 0.465353 0.0395922 0.209567
180 0.404955 0.461958 0.0493088 0.223681 -3.49563 -0.335309 -0.018369 -0.30548
179 0.449279 0.41069 0.0490695 0.226964 -3.49484 -0.0573332 -0.503995 0.122418
184 0.503758 0.462187 0.0482914 0.492209 -3.4878 -0.0289487 -1.19008 0.14329
183 0.546693 0.406501 0.0503183 0.338984 -3.48269 0.420155 0.260928 -0.083347
188 0.598499 0.460949 0.0507845 0.318897 -3.49916 -0.359388 -0.580689 -0.105732
187 0.64748 0.409516 0.0495282 0.255046 -3.48774 -0.144234 -0.683424 -0.00153728
189 0.697367 0.417898 -0.000732039 0.233946 -3.50336 0.199493 -0.6199 0.464876
191 0.749746 0.408476 0.0520478 0.208909 -3.47452 -0.234212 -0.168114 -0.904301
192 0.693563 0.458449 0.0496871 0.473767 -3.48565 0.684868 -0.114967 -0.0375826
195 0.849914 0.409266 0.0513168 0.119909 -3.51215 0.0773562 -0.0126724 0.210387
199 0.946921 0.411077 0.0503848 5.57768 -3.50464 0.340949 0.467322 0.482569
200 0.899513 0.460406 0.0494465 0.276893 -3.48844 -0.146921 0.428764 0.410341
203 0.0480915 0.508632 0.0474439 0.700776 -3.48488 0.433625 0.672777 0.907108
162 0.047431 0.472427 0.000383621 5.45114 -3.47473 0.123098 -0.862252 -0.221655
205 0.0984198 0.521036 0.000233671 0.268147 -3.51362 0.454232 -0.0318901 0.0429245
201 0.992285 0.516632 0.000251464 5.33715 -3.48764 1.27508 0.658371 -0.345521
207 0.153158 0.510771 0.0479756 0.237722 -3.48826 -0.180657 0.181081 0.566341
209 0.202608 0.521298 0.999297 0.11584 -3.5152 0.00438973 0.0964615 -0.11047
166 0.153804 0.473501 0.000317654 5.09927 -3.47194 -0.108522 -0.952189 -0.372725
211 0.252059 0.508652 0.0487537 0.460176 -3.49584 -0.0392351 1.2111 0.443157
170 0.253294 0.471642 0.998146 0.223591 -3.48234 -0.153965 0.12224 0.187738
213 0.303769 0.522955 0.001002 0.42874 -3.51823 -0.0425209 -0.458029 -0.616433
215 0.355313 0.50947 0.0485335 0.328635 -3.50009 -0.675828 0.537503 0.111559
178 0.451893 0.468941 1.00044 0.446165 -3.47971 0.356597 0.647829 -0.674692
219 0.456602 0.511751 0.0496501 0.553994 -3.49535 -0.213297 -0.340405 -0.331381
221 0.500666 0.52123 0.996498 5.09333 -3.49192 0.219597 -0.094099 0.625212
223 0.54912 0.510837 0.0475218 0.297751 -3.49814 0.0640695 0.780689 -0.0145312
227 0.646318 0.509489 0.0503256 0.243111 -3.49347 0.197133 -0.028044 -0.158714
231 0.747081 0.50543 0.0500268 0.601387 -3.50071 0.2076 0.551647 -0.433486
190 0.748765 0.465027 0.99879 0.613213 -3.47257 0.283037 0.543084 0.614986
196 0.798379 0.458771 0.0542006 5.3427 -3.48054 0.293682 -0.071016 -0.685871
235 0.846745 0.511014 0.0491891 5.09824 -3.4689 0.541491 -1.72125 0.21973
239 0.951349 0.509586 0.0526979 0.617521 -3.497 -0.770189 -0.223606 -0.476504
237 0.902448 0.517128 4.51211e-05 0.572543 -3.49037 -0.598794 0.164717 0.184009
208 0.101544 0.56003 0.0506957 0.178332 -3.4883 -0.104485 -0.248545 -0.122403
204 1.00353 0.56009 0.0491549 5.09586 -3.50031 -0.64707 0.247941 0.599862
243 0.0540259 0.607231 0.0529486 5.07074 -3.47933 -0.524321 0.525414 -0.875296
212 0.200748 0.561022 0.0474861 0.244622 -3.50137 0.362009 -0.0488995 0.392686
247 0.150574 0.611746 0.053216 0.422621 -3.45722 -0.37084 -0.0845045 -0.913476
216 0.301671 0.563634 0.0471983 0.473305 -3.46013 0.360626 -0.610928 0.665645
251 0.248547 0.61111 0.0461687 0.603061 -3.50121 0.445324 0.343439 0.794437
210 0.253237 0.570845 -0.00186185 0.23494 -3.47452 -0.285331 0.642104 0.155593
220 0.404577 0.557685 0.047669 0.819457 -3.48464 -0.499654 1.21289 0.043572
255 0.354473 0.6109 0.0506801 5.58505 -3.47043 -0.371568 -0.460346 -0.952767
224 0.500335 0.562788 0.0482051 0.24939 -3.48899 0.789606 -0.1335 -0.194956
218 0.453466 0.571013 -0.00144924 0.245295 -3.44554 -0.222839 -0.567736 -0.640837
259 0.45447 0.611661 0.0476321 0.237531 -3.46841 -0.450617 0.2875 0.328672
228 0.600864 0.561681 0.0485112 0.104167 -3.49222 -0.20474 0.0525907 -0.194814
263 0.553812 0.616931 0.0471385 5.04614 -3.44702 -0.60541 -1.39485 0.445988
226 0.653436 0.5719 -0.00307843 0.502564 -3.47145 -0.0470718 -0.151307 1.5791
232 0.699776 0.559256 0.0517517 0.273462 -3.49406 -0.343968 -0.0530199 -0.377341
267 0.651324 0.611125 0.0503608 0.166575 -3.51358 0.450633 -0.803689 -0.195915
271 0.745092 0.610358 0.0510622 0.445394 -3.51487 0.105308 -0.265389 -0.0687657
236 0.799712 0.559505 0.0518361 0.363446 -3.46409 -1.09098 -0.826448 -1.30086
275 0.846123 0.606513 0.0521593 0.328384 -3.49255 0.609266 0.375365 -0.0103572
240 0.89511 0.556047 0.0479112 5.19556 -3.47835 0.86365 0.591261 0.421112
279 0.946558 0.604338 0.0501619 4.39662 -3.48954 0.518312 0.394699 0.489196
238 0.952585 0.567644 -0.00183607 0.624968 -3.47648 -0.674022 -0.0560702 0.816831
248 0.0987885 0.662461 0.0517406 0.320235 -3.49548 0.0733854 -0.232631 -0.181956
244 0.999037 0.655276 0.0528605 0.562151 -3.48591 -0.0309421 0.503749 0.0825648
252 0.197765 0.661516 0.0521622 5.50817 -3.46391 0.211361 0.0545967 -1.1141
249 0.203516 0.624202 -0.00145401 4.99813 -3.48518 -0.513835 -0.483392 0.0605579
256 0.302844 0.658224 0.0475091 0.650609 -3.5139 -0.177017 0.223365 0.044983
260 0.400778 0.66009 0.0507514 5.08828 -3.49462 0.327104 0.386609 -0.523177
254 0.35225 0.671224 0.999008 0.208982 -3.48273 -0.237811 0.368981 0.231027
264 0.503362 0.665234 0.047715 5.02437 -3.50357 -0.0911281 -0.912203 0.447994
258 0.450936 0.670523 1.00194 4.96886 -3.49018 0.151833 -0.199946 -1.11447
268 0.603163 0.660829 0.0513046 0.350941 -3.48422 0.511289 0.343411 -0.392131
269 0.700346 0.623002 0.000592702 0.352406 -3.47665 -0.0210836 -0.829082 -0.675109
272 0.697153 0.661942 0.0529633 0.435174 -3.48482 -0.303054 -0.281412 -0.354526
276 0.798137 0.6569 0.0522672 0.142904 -3.48121 0.0412999 0.500087 0.177986
280 0.900323 0.655591 0.0535327 0.29765 -3.49599 -0.0966873 0.0917888 -0.366324
241 0.996286 0.620029 0.0025634 0.684692 -3.4897 0.900644 -0.558931 -0.336935
278 0.947876 0.668381 7.15637e-05 0.294043 -3.47749 0.401251 -0.181776 0.581066
283 0.0460343 0.709141 0.0495284 0.29963 -3.49115 0.37587 0.0586538 0.552426
288 0.096471 0.758867 0.0506483 0.136898 -3.48519 -0.112965 0.293309 -0.149748
287 0.146556 0.713786 0.0503674 4.93008 -3.50449 0.316031 -0.883035 -0.0935435
289 0.199956 0.718594 1.00178 0.411102 -3.4827 -0.0393941 0.244626 -0.462516
291 0.252291 0.708772 0.0498424 4.97401 -3.50987 0.0214843 0.675736 -0.02194
292 0.198912 0.759555 0.0487104 0.197551 -3.50233 0.386121 -0.0208749 0.325361
295 0.350816 0.709814 0.0466957 0.278047 -3.49107 0.217147 0.54069 0.750133
296 0.29857 0.760641 0.0482326 0.318344 -3.4717 0.96076 -0.233746 0.994014
299 0.4537 0.712102 0.0468019 5.30831 -3.4921 -0.306796 0.3344 0.555992
300 0.402586 0.762476 0.0496036 0.349172 -3.49519 -0.0458901 -0.517029 -0.00792755
297 0.400182 0.722364 -0.000572329 5.49148 -3.52014 0.365138 -0.367153 -0.187808
298 0.453321 0.769124 0.99933 0.27871 -3.47986 0.472724 0.188788 -0.834868
303 0.55468 0.712788 0.0514216 0.485465 -3.48854 -0.157902 -0.858815 -1.22968
304 0.50575 0.759941 0.0484991 0.30656 -3.514 -0.393023 0.416201 -0.0327222
307 0.646397 0.713334 0.0493864 0.428121 -3.47353 0.237546 -0.588706 0.0846567
308 0.600965 0.763129 0.0478545 0.290369 -3.47935 0.366762 0.460376 -0.00926527
312 0.69496 0.759628 0.0516913 0.474115 -3.49303 0.771521 0.150604 -0.449233
306 0.651804 0.770366 0.996464 0.567521 -3.48633 -0.187549 0.522586 0.491026
311 0.746431 0.707553 0.052582 0.265575 -3.46815 -0.0731274 -0.0767635 -0.43712
315 0.851487 0.706154 0.0517415 0.290287 -3.50838 -0.532867 0.207847 0.243925
316 0.795783 0.756723 0.053951 0.492884 -3.48257 0.580128 0.248895 -0.463292
313 0.797403 0.716724 0.00502893 0.794358 -3.50178 0.496634 0.515974 -0.57649
317 0.897261 0.717032 0.00319522 0.291246 -3.48385 0.244502 -0.241276 -0.991585
320 0.897596 0.757566 0.0529907 0.185842 -3.4892 -0.00159014 0.056741 -0.324813
284 0.996834 0.758154 0.0506282 0.22439 -3.49073 -0.295578 0.622899 0.203999
319 0.950916 0.705271 0.0504801 0.494576 -3.49891 -0.361754 0.299229 0.726859
281 0.997559 0.716906 0.00305856 0.436687 -3.48087 -0.224004 0.574194 -0.711079
323 0.0454934 0.806176 0.0519693 5.28728 -3.51381 0.271641 0.704323 0.00591284
325 0.0969629 0.813834 -0.000252938 4.93523 -3.45977 0.0211499 1.2392 0.825884
327 0.149798 0.808751 0.0475662 5.17224 -3.49563 -0.0675105 -0.2377 0.654082
331 0.251062 0.807343 0.0530215 0.816008 -3.44855 -0.419724 0.402544 -1.90505
335 0.35172 0.812749 0.049013 0.431531 -3.47812 -0.0222236 -0.760194 0.251541
337 0.398784 0.819211 0.998913 5.05165 -3.50223 0.266251 0.343304 -0.0742782
339 0.45405 0.810533 0.0431199 5.33041 -3.46642 -0.344659 0.418262 1.78009
343 0.555369 0.813777 0.0469464 0.433076 -3.49385 -0.547686 -0.109495 0.306832
345 0.605222 0.822728 -0.000553847 0.260582 -3.50124 -0.0785385 -0.195057 -0.619937
347 0.653913 0.811062 0.0478475 0.28082 -3.50762 -0.336358 0.028017 0.0418304
351 0.747401 0.810629 0.048199 0.666549 -3.46915 0.563036 -0.754807 0.847704
355 0.845563 0.806647 0.0502999 0.440298 -3.46923 0.375632 0.109557 0.552358
353 0.80328 0.818172 0.000778189 0.407387 -3.48941 -0.414885 0.334769 -0.370112
357 0.896222 0.817329 0.00268828 0.242657 -3.47858 -0.315436 0.356156 -0.332393
359 0.944923 0.811567 0.0535448 0.616127 -3.50449 0.210905 -0.693324 -0.0253474
321 0.992229 0.819439 1.00512 0.849667 -3.48145 0.673029 -0.548189 -0.983693
363 0.0449564 0.912765 0.0520017 0.701717 -3.47148 0.586675 -0.834579 0.209174
322 0.0464313 0.869376 1.00414 0.384458 -3.49295 0.209694 -0.455756 -0.482457
365 0.0959795 0.918729 0.000511143 0.245716 -3.50454 0.438414 0.124588 0.501941
328 0.0969446 0.8569 0.0513891 0.262946 -3.49313 -0.0521172 0.228016 -0.277582
367 0.148276 0.908173 0.0526595 0.358794 -3.48376 -0.426909 0.327947 -0.644345
332 0.197923 0.86131 0.050198 0.457294 -3.49318 0.402659 -0.62827 0.348605
371 0.248379 0.910633 0.0514666 0.119086 -3.50376 0.171136 -0.0291496 -0.288113
373 0.298722 0.92109 -9.92986e-05 0.291903 -3.50494 0.354299 -0.859808 0.635084
336 0.301173 0.857754 0.0503624 0.301928 -3.48869 -0.318113 0.662467 -0.119684
375 0.348024 0.909218 0.0517422 0.508979 -3.48909 0.48833 0.371304 -0.585925
334 0.349784 0.869816 -0.000442659 4.9382 -3.51433 -0.0204622 0.22438 -0.0629786
340 0.403095 0.861466 0.0476876 0.253855 -3.5125 -0.313167 -0.254382 0.216249
379 0.451528 0.911546 0.051586 0.395983 -3.47909 0.362975 -0.281964 -0.97532
344 0.503623 0.864841 0.0501094 0.672358 -3.49025 0.0669898 -0.496982 -0.589268
383 0.555827 0.91296 0.0495539 0.516822 -3.50202 -0.475231 -0.076171 -0.17161
348 0.602361 0.863357 0.0479004 0.194123 -3.49481 0.383301 -0.125696 0.237575
387 0.654963 0.912546 0.0506713 0.262021 -3.50843 0.013344 -0.0208157 -0.31159
352 0.702895 0.860146 0.0506199 0.249857 -3.48713 0.339561 0.396359 -0.385946
346 0.655688 0.872398 -0.00162574 4.90614 -3.51547 0.306355 -0.294649 0.208721
389 0.706051 0.922609 0.998637 0.443879 -3.50381 -0.267814 -0.584454 0.291828
391 0.752595 0.909798 0.0502552 0.198362 -3.46717 -0.251684 -0.102583 -1.12129
356 0.796273 0.858633 0.0485355 0.365893 -3.49052 0.115198 0.172621 0.227816
393 0.798788 0.920438 -0.000556731 0.241535 -3.5053 0.278074 0.0898302 0.027892
360 0.896743 0.858868 0.0509831 0.133481 -3.48945 -0.208668 0.245426 0.612289
395 0.846823 0.909072 0.050156 0.309527 -3.49783 -0.0981271 0.487257 0.10694
354 0.850249 0.869978 -0.000191411 0.190192 -3.49814 0.437741 0.156299 -0.325438
324 1.00082 0.858363 0.0523334 0.709486 -3.46513 -1.11444 1.20641 0.506593
399 0.945568 0.909529 0.0516863 0.17252 -3.48326 0.380379 -0.0738429 -0.165524
361 0.998294 0.919631 1.00102 0.221759 -3.47801 -0.268603 -0.725931 -0.223721
368 0.0965709 0.962006 0.0492566 0.487968 -3.50554 0.030851 -0.489237 0.182789
362 0.0441968 0.967916 0.999851 0.698893 -3.51059 0.242902 0.579482 0.335644
366 0.148732 0.970205 0.00177705 0.171382 -3.50931 -0.319309 -0.295699 0.0263297
372 0.196641 0.960774 0.0525386 5.42054 -3.49558 0.135328 -0.00122849 -0.512523
376 0.301109 0.960391 0.0523795 0.197862 -3.50477 -0.308232 -0.488155 -0.336083
374 0.347767 0.968884 1.00115 0.354213 -3.49226 0.661617 -0.254995 -0.723155
380 0.405354 0.960523 0.0502638 0.595816 -3.46752 -1.34462 0.0804735 0.653762
384 0.497731 0.960359 0.045217 4.98551 -3.44415 1.80428 0.411372 1.98118
388 0.604867 0.962371 0.0471287 4.68299 -3.47903 -0.470767 -0.0599847 0.633584
386 0.651568 0.970776 0.994856 0.549423 -3.47459 0.0733113 -0.173362 0.945479
392 0.705636 0.961958 0.0493247 0.365908 -3.48473 -0.404918 -0.142389 -0.63116
396 0.800433 0.964092 0.04835 0.291219 -3.50196 0.197932 -0.580022 -0.347705
390 0.750732 0.971072 0.996852 0.245373 -3.47454 0.405734 0.987852 1.10121
400 0.892259 0.962106 0.049621 0.998674 -3.46709 0.800975 -0.689479 -0.322271
364 0.99848 0.958854 0.0516502 0.401341 -3.48582 -0.451754 0.560871 0.28859
402 0.0512535 0.0481068 0.103368 0.636807 -3.43597 -0.189523 0.149837 -1.14572
405 0.0967931 0.998513 0.10195 0.337477 -3.4821 0.039212 0.275505 -0.713069
404 0.996396 0.0400495 0.150726 0.298602 -3.51242 0.263395 -0.193279 -0.228295
408 0.0981243 0.0399986 0.150425 0.223912 -3.49458 0.497538 -0.383393 0.54799
406 0.146986 0.0477681 0.0996049 5.0605 -3.47321 0.285533 0.496876 0.262518
412 0.196398 0.0402601 0.149645 0.388837 -3.48982 0.649207 -0.822717 -0.00999876
410 0.251043 0.050415 0.101227 0.216595 -3.51161 -0.220535 0.0443797 0.0877001
416 0.299721 0.0382454 0.151368 0.184984 -3.50783 0.0761685 0.523132 -0.123462
414 0.348669 0.0492867 0.10193 0.252423 -3.49837 0.123338 0.182329 0.250642
420 0.399636 0.0426968 0.14982 0.291478 -3.50209 -0.20868 -0.114601 0.403731
418 0.448685 0.0501168 0.0997286 0.169936 -3.50534 0.0657311 -0.016593 -0.0795229
417 0.401724 1.00231 0.102055 4.78042 -3.48797 -0.317339 -1.03164 -0.907414
424 0.495839 0.0404245 0.150292 0.376477 -3.50001 0.459434 -0.0435628 -0.188043
421 0.500316 3.41436e-05 0.0972501 5.20296 -3.45118 0.585765 -0.243622 0.0224109
422 0.552083 0.0492867 0.102271 5.06119 -3.49354 -0.276426 0.268608 -0.485361
425 0.60383 0.000639219 0.101648 5.46164 -3.48553 -0.141127 0.166264 -0.915248
428 0.600294 0.0409269 0.152297 0.324751 -3.50196 0.262278 0.302532 -0.398821
426 0.654529 0.0503511 0.0972112 0.450008 -3.4742 -0.199421 0.127016 0.662369
432 0.704971 0.0412797 0.149285 0.166218 -3.49901 -0.1952 0.572916 0.115107
430 0.752637 0.0544775 0.0975207 0.414381 -3.46864 0.337519 -0.133668 0.639049
433 0.799673 0.00580321 0.0997293 4.94001 -3.49284 0.259416 -0.699219 -0.658917
436 0.808413 0.0442803 0.148776 0.858533 -3.45448 -0.762661 -0.159548 0.0978234
434 0.850923 0.0506559 0.0983636 0.378697 -3.47663 0.287737 0.468215 -0.109755
440 0.899177 0.0435499 0.151315 0.385154 -3.51248 0.0582104 -0.349097 -0.137871
438 0.949277 0.0518866 0.099262 0.23965 -3.49971 -0.127671 -0.141996 0.184118
437 0.901557 0.0024552 0.100541 0.393345 -3.50732 -0.368345 0.0182724 -0.452138
442 0.0477446 0.154909 0.100482 4.72071 -3.46944 0.58876 -0.937643 0.176114
443 0.0515667 0.0872631 0.147431 0.686717 -3.45821 -0.00149731 1.1873 0.965656
444 0.00372752 0.140867 0.15124 0.286931 -3.49762 -0.208936 -0.0635068 -0.0379508
445 0.106117 0.100709 0.0998815 0.757574 -3.4576 -0.975592 0.0859935 0.184331
446 0.151848 0.15015 0.100316 0.230741 -3.48613 -0.0435436 0.358272 0.42848
447 0.149647 0.0872283 0.148936 0.519331 -3.45538 0.387379 1.03003 0.930871
448 0.102806 0.141547 0.152646 0.479703 -3.45872 -0.618463 -0.596693 -0.944126
449 0.201194 0.0992952 0.101963 0.173136 -3.4861 -0.372072 0.757515 0.421623
452 0.202722 0.143101 0.154501 1.06383 -3.47028 -0.75303 -0.931252 -1.34332
450 0.251627 0.149302 0.101478 0.237322 -3.50993 0.089037 0.202675 0.310792
451 0.246176 0.0894278 0.152229 0.402128 -3.49182 0.847903 -0.510964 0.275701
453 0.303772 0.0994084 0.103359 0.828969 -3.49166 -0.990113 -0.0924526 -0.817705
456 0.2959 0.138833 0.154358 0.425913 -3.50585 -0.290326 0.717097 -0.25815
454 0.344477 0.150761 0.102077 5.39291 -3.48557 0.251404 -0.395531 0.754624
455 0.347229 0.0918095 0.152334 0.238543 -3.49677 0.164494 -0.582763 0.398772
460 0.394671 0.141755 0.152926 5.67403 -3.49472 0.428596 -0.654659 -0.844344
457 0.396047 0.0991854 0.099753 0.289742 -3.50425 0.0377649 0.472242 0.830344
458 0.449178 0.151192 0.102633 5.30533 -3.50144 -0.41396 -0.500604 -0.18361
459 0.447147 0.0909488 0.149186 0.218129 -3.49651 0.134001 0.302958 0.546326
461 0.49579 0.0996427 0.100973 5.07789 -3.50492 0.415671 -0.284994 -0.430051
464 0.502566 0.141416 0.148058 5.03098 -3.46108 -1.2941 -0.0983382 1.05751
463 0.545524 0.089612 0.150142 5.30489 -3.49228 0.811297 0.202866 -0.375827
465 0.601679 0.101724 0.100571 5.10925 -3.49757 0.0470125 -0.75754 -0.157516
466 0.654629 0.150238 0.0990487 4.58972 -3.50831 -0.31486 0.0690295 0.100124
469 0.708195 0.103275 0.0997084 4.73084 -3.48261 -1.01572 -0.360063 -0.527726
472 0.704528 0.138806 0.151842 0.833423 -3.5006 -0.28183 0.51453 -0.208964
471 0.754551 0.0899615 0.148971 0.298087 -3.50268 0.037949 0.343528 0.0498728
470 0.752788 0.153007 0.0997186 0.389432 -3.46524 0.440624 -0.836397 -0.355102
473 0.805475 0.103414 0.0981107 0.434966 -3.49718 -0.882778 -0.579807 0.376543
476 0.801506 0.142616 0.150684 0.518506 -3.49841 0.480836 -0.259096 -0.377192
474 0.851783 0.152364 0.100679 0.27147 -3.48655 0.347754 -0.107709 -0.633009
475 0.852728 0.0915764 0.147289 0.399882 -3.47367 -0.0916363 1.3948 1.02859
477 0.902401 0.105553 0.0980736 0.988033 -3.46921 -0.174069 -0.960024 0.583283
480 0.905887 0.138908 0.151427 4.98596 -3.48507 -0.40818 0.548107 -0.589906
441 0.00188166 0.0999621 0.100306 0.283794 -3.51163 0.138944 0.223136 -0.0690747
478 0.954482 0.152029 0.102101 0.485898 -3.47999 -0.0900832 0.226793 -0.234315
479 0.952019 0.090386 0.148553 0.262166 -3.50337 -0.0130202 0.33229 0.407461
483 0.0501722 0.19244 0.15085 0.170386 -3.49881 0.371135 0.0497561 0.370799
485 0.0995546 0.20371 0.101348 0.240621 -3.49658 0.396687 -0.844914 -0.0715603
487 0.145318 0.190946 0.152121 0.769211 -3.48661 0.541516 0.103187 -0.292306
489 0.199713 0.200859 0.100957 0.125555 -3.49361 0.0110489 0.0527485 0.324914
491 0.248368 0.192176 0.152373 0.225993 -3.49585 0.227704 -0.352484 -0.12088
493 0.302427 0.19919 0.103824 0.689292 -3.43822 -1.05837 0.34115 -0.378446
495 0.34898 0.190465 0.154435 0.309776 -3.49137 -0.478644 -0.329458 -0.386674
497 0.394915 0.198259 0.103721 4.92079 -3.51233 0.00802506 0.39303 -0.446984
499 0.445009 0.190818 0.14955 4.95679 -3.4874 0.613463 -0.193851 0.817077
501 0.501576 0.19935 0.100308 5.23504 -3.48517 -0.498824 -0.649402 0.137904
462 0.552034 0.147219 0.100824 0.477168 -3.48997 -0.361474 0.930033 -0.100237
503 0.549602 0.187703 0.151226 5.2169 -3.49437 0.543071 0.973285 -1.07256
505 0.5983 0.197589 0.0960848 5.08608 -3.48875 -0.0279243 0.00720916 0.837687
507 0.652356 0.189997 0.1488 0.103389 -3.50225 0.140526 0.0724426 -0.246419
509 0.705232 0.198403 0.0992521 0.294583 -3.48837 -0.834046 0.492484 -0.102988
511 0.752573 0.190951 0.147201 5.25272 -3.492 0.197122 0.22624 0.852609
513 0.806922 0.202518 0.10221 0.621431 -3.50535 -0.110265 -0.266183 -0.566858
515 0.860097 0.191062 0.152066 4.82768 -3.50884 -0.883925 0.0376206 -0.274322
481 0.00398048 0.204221 0.098373 4.9927 -3.48853 -0.635909 -0.103601 0.629278
517 0.901882 0.203004 0.0993012 0.228396 -3.51004 -0.107655 -0.326286 -0.0744251
519 0.9504 0.192491 0.148384 0.534148 -3.47554 0.661971 -0.267547 0.138412
482 0.0506813 0.251271 0.102057 0.299554 -3.49082 0.143576 0.181761 -0.686416
523 0.0507065 0.291646 0.148942 0.20321 -3.4995 -0.0813396 0.268618 0.289591