ITEM: TIMESTEP
1500
ITEM: NUMBER OF ATOMS
4000
ITEM: BOX BOUNDS pp pp pp
1.2628841440918286e+00 3.4837115855908095e+01
-5.7355799461546297e-01 3.6673557994615408e+01
-5.7855829559604288e-01 3.6678558295596019e+01
ITEM: ATOMS id xs ys zs c_csym c_peratom fx fy fz
4 -0.00343766 0.049587 0.0494495 0.51648 -3.51245 0.708914 0.0404191 -0.139234
1 -0.00196849 0.000404794 8.31757e-05 0.279184 -3.50469 0.817129 -0.524237 -0.346608
3 0.0514532 -0.0010396 0.0488802 0.179875 -3.4951 -0.31753 -0.683564 0.126706
8 0.100015 0.0478314 0.0500085 0.231047 -3.47173 -0.194382 0.410686 -0.982442
5 0.0985237 -0.00233245 -0.00316579 0.28853 -3.50695 0.277554 0.0990642 1.0106
7 0.150756 0.002637 0.04824 0.827222 -3.44774 -0.361847 -2.21053 -0.0700454
6 0.148311 0.0476607 -0.00122386 0.276753 -3.48005 -0.018337 0.434456 -0.436626
12 0.198579 0.0492689 0.0502083 0.410118 -3.46236 1.08393 -0.250848 -0.448274
11 0.252334 -0.00286982 0.0474356 0.259664 -3.50654 0.106504 1.12149 0.327114
16 0.304584 0.0488168 0.0495869 0.218595 -3.5093 -0.780141 -0.433618 -0.570458
15 0.355223 -0.00267227 0.0481398 0.369565 -3.49266 -0.567973 0.413957 0.381521
20 0.401758 0.0490071 0.0481624 0.18521 -3.50976 -0.0377042 0.3482 0.977942
19 0.448342 -0.0014684 0.0496907 0.216314 -3.49923 0.652225 0.550448 0.116285
24 0.502424 0.0469283 0.0522534 0.691007 -3.46225 -0.54924 0.735407 -0.364989
28 0.602194 0.0499858 0.0479398 0.397381 -3.51483 -0.374795 -0.0603613 0.603073
25 0.601185 0.00124431 -0.000301068 0.0963988 -3.52512 0.12003 -0.0313177 -0.0817324
32 0.702582 0.0519715 0.0513619 0.135506 -3.51653 -0.055115 -0.280301 -0.132757
26 0.651919 0.0494475 0.00182886 0.245216 -3.50943 0.0459245 0.134316 -0.46222
29 0.702213 0.000425063 0.00393478 0.348003 -3.50541 -0.337289 0.334336 -0.310409
36 0.79985 0.0500463 0.0543219 0.746063 -3.51939 0.434198 -0.243485 -0.819853
31 0.750225 -0.000729889 0.0511276 0.149434 -3.51445 0.22095 0.194257 0.397006
30 0.751873 0.0502861 0.000520496 0.163969 -3.4957 -0.230039 0.311533 -0.126506
35 0.852132 -0.000761141 0.0507917 0.230293 -3.50541 -1.19291 0.46925 -1.04099
40 0.901132 0.0508828 0.0489938 0.232253 -3.50179 -0.753896 -0.383924 -0.34507
37 0.896446 0.000195741 -0.00295299 0.42646 -3.48686 0.898792 -0.368259 -0.786183
38 0.952369 0.0492433 -0.00216809 0.469464 -3.49629 -0.822634 -0.0534599 -0.262168
42 0.0511176 0.150668 -0.00261013 0.231542 -3.51586 -0.23857 -0.475189 0.441748
43 0.0525944 0.0992819 0.0482141 0.218831 -3.51947 -0.381614 0.198285 -0.0277232
44 -0.00048613 0.150897 0.0513295 0.370474 -3.50298 0.132335 -0.669606 -0.537913
45 0.102484 0.0993285 -0.00144549 0.249632 -3.50418 -0.639186 -0.600855 0.465608
47 0.150425 0.0931947 0.0499337 0.839567 -3.476 0.246821 1.98988 -0.116477
48 0.101218 0.149803 0.0489257 0.173039 -3.52226 -0.151656 -0.409949 0.15273
49 0.201619 0.0977103 0.000283743 0.215204 -3.5193 -0.220179 0.140088 -0.426272
52 0.201199 0.146564 0.0502618 0.215607 -3.5117 -0.658557 0.619071 0.0013101
51 0.249555 0.0996362 0.0485133 0.27696 -3.49757 0.378691 -0.0764293 0.406035
50 0.25232 0.151683 0.00264794 0.487215 -3.49294 -0.615538 -0.695296 -0.765202
56 0.300591 0.15161 0.0479854 0.300755 -3.50029 0.362818 -0.338811 0.65279
54 0.351981 0.152209 -0.00125473 0.290286 -3.4889 -0.867664 -0.297425 -0.533321
55 0.353822 0.100253 0.0514364 0.528605 -3.44173 -0.456743 -0.458868 -0.632091
60 0.397079 0.1505 0.0501118 0.610694 -3.47046 0.974361 0.350146 -0.734857
58 0.447815 0.150338 0.00177659 0.354305 -3.52342 0.456539 0.0988943 -0.349466
59 0.453571 0.0996208 0.0506622 0.439235 -3.44526 -0.607526 0.0178372 0.287514
64 0.501581 0.151882 0.0498008 0.165347 -3.50984 -0.312194 -0.462782 0.0851921
61 0.499691 0.100831 -0.000473993 0.163453 -3.47268 -0.0461841 -0.504347 0.503352
63 0.551227 0.102646 0.0511889 0.306347 -3.50237 -0.500096 -0.694262 -0.272119
68 0.600991 0.151739 0.0499133 0.110373 -3.51457 0.166933 -0.0239692 -0.0383503
62 0.548285 0.149109 0.000654523 0.242773 -3.51598 0.513181 0.390857 -0.58523
65 0.603689 0.101411 0.00340103 0.829395 -3.47509 -0.816144 -1.044 -1.02281
67 0.653649 0.102162 0.0504715 0.300336 -3.50579 -0.596381 -0.44134 -0.332424
72 0.701621 0.151615 0.0491967 0.224226 -3.48707 0.321147 -1.02799 0.163714
66 0.649636 0.149114 9.21421e-05 0.236145 -3.50533 0.536524 0.297688 -0.455966
69 0.701699 0.0987321 -0.00193246 0.204183 -3.51892 -0.213346 0.63045 0.422573
71 0.753034 0.102429 0.0468269 0.747325 -3.4677 -1.14866 -0.826979 1.30863
73 0.800768 0.0974983 -0.000455197 0.372988 -3.47517 0.555724 1.2795 0.117957
76 0.800416 0.14994 0.0490721 0.100411 -3.49516 1.2274 -0.856449 -0.77666
75 0.850079 0.0989524 0.0495027 0.152758 -3.51795 -0.0305903 0.664401 -0.381306
77 0.8971 0.101932 -0.00398455 0.547789 -3.49343 0.428291 -0.689784 0.59778
80 0.897507 0.149798 0.0491379 0.196607 -3.52034 0.770091 -0.132969 -0.412776
74 0.847634 0.15142 -0.0015003 0.192743 -3.50167 0.463093 -0.953101 0.673397
41 0.999943 0.0992457 -0.000759059 0.16123 -3.51367 -0.130693 0.585336 0.316662
79 0.946996 0.0982818 0.0493313 0.431391 -3.48413 0.927141 0.59601 0.44564
83 0.0497928 0.198629 0.0490384 0.112171 -3.51531 0.0206519 0.565929 0.392511
87 0.151237 0.2004 0.0515386 0.244548 -3.51913 -0.0888869 -0.366292 -0.406542
91 0.250332 0.199932 0.0524246 0.212822 -3.5238 -0.166735 -0.0626079 -0.029385
92 0.199061 0.250156 0.0483727 0.336606 -3.49604 0.201715 0.55484 0.124346
95 0.352546 0.200469 0.0500574 0.198637 -3.52002 -0.306413 0.128852 0.33461
93 0.298723 0.201716 0.00121686 0.224203 -3.49105 0.0505376 -0.58525 -0.458631
99 0.450601 0.199238 0.0501828 0.151035 -3.51889 -0.447917 0.0113639 -0.444645
103 0.549473 0.19957 0.0495292 0.134971 -3.5016 0.2938 0.306972 -0.342998
107 0.649054 0.201877 0.0476562 0.377238 -3.50913 0.78353 -0.0515552 1.09117
106 0.654502 0.249412 -0.00149761 0.614649 -3.50542 -0.661973 -0.0778542 -0.0896833
112 0.701001 0.250027 0.0492984 0.167963 -3.50538 -0.252654 0.256527 0.402114
111 0.752218 0.198645 0.0470842 0.229728 -3.4795 0.034146 -0.199165 1.34141
116 0.804353 0.25056 0.0475207 0.306695 -3.51971 -0.380364 0.13932 0.0986654
115 0.850188 0.19873 0.0474912 0.145657 -3.50439 -0.195493 -0.214393 0.793576
120 0.902793 0.246673 0.0461623 0.630286 -3.46514 -1.38952 0.46406 1.22247
84 0.995634 0.250549 0.0520397 0.761465 -3.48915 0.828219 -0.537701 -0.434748
119 0.948732 0.200745 0.0497466 0.17721 -3.46255 0.951252 -0.282372 -1.20839
81 1.00305 0.2002 -0.00114664 0.348206 -3.49918 -0.51836 0.615811 0.418663
123 0.0494515 0.297626 0.0500729 0.247084 -3.50875 -0.268752 0.770083 0.0437055
88 0.100102 0.250233 0.0500146 0.11459 -3.50188 0.0873232 0.0745856 -0.189238
125 0.100153 0.301979 -0.00136241 0.291966 -3.50671 0.265628 -0.743134 0.333219
127 0.150102 0.29981 0.0463015 0.43611 -3.51206 -0.0980695 -0.0592512 0.566883
129 0.202026 0.303046 -0.00336725 1.06774 -3.48223 -0.206302 -0.367176 1.27049
131 0.251219 0.302234 0.0507544 0.450075 -3.4898 -0.336493 -1.20714 0.289256
90 0.251388 0.252137 0.00431204 0.768533 -3.45295 0.351108 -0.342687 -0.214281
96 0.299941 0.24884 0.0499812 0.304383 -3.50276 0.141868 0.433709 0.679934
135 0.353512 0.29541 0.0520102 0.779741 -3.48566 -0.650278 0.568072 -0.152316
100 0.403282 0.249074 0.05273 0.511543 -3.46851 -0.291452 0.676581 -1.10195
139 0.450461 0.300543 0.0484492 0.338774 -3.51029 -0.163136 -0.0100477 0.426904
104 0.501445 0.246764 0.0488984 0.460841 -3.51626 -0.148216 0.604029 -0.129139
108 0.59922 0.25082 0.0494148 0.121663 -3.49999 -0.546891 -0.438071 -1.30352
143 0.549744 0.300405 0.048377 0.143879 -3.51206 0.204021 -0.253536 0.108395
147 0.647279 0.301664 0.048259 0.407839 -3.51116 0.819583 -0.38957 0.665014
149 0.701901 0.300043 0.00280002 0.448485 -3.46321 -0.630241 0.756177 -0.851452
151 0.750505 0.301981 0.0497262 0.154697 -3.49959 0.0938757 -0.408804 0.0355455
153 0.799819 0.300672 0.00146534 0.427638 -3.51186 0.335146 -0.0462064 -0.412235
155 0.854349 0.298937 0.0480319 0.327909 -3.50137 -0.335627 0.144578 0.226786
157 0.901244 0.29911 -0.000950512 0.103733 -3.48442 0.122506 0.957685 0.0280446
159 0.947826 0.298486 0.0494857 0.405149 -3.502 0.103388 0.619554 0.151276
163 0.0492138 0.398077 0.0519772 0.437001 -3.49077 0.405816 1.24448 0.226555
128 0.0985776 0.34769 0.0498864 0.412503 -3.50554 0.856015 1.17391 0.300981
167 0.150737 0.400519 0.0493237 0.274525 -3.5123 -0.380014 -0.623859 -0.108528
132 0.198456 0.347298 0.0527832 0.800947 -3.48868 0.345297 0.812705 -0.969987
171 0.251152 0.396916 0.0498763 0.465222 -3.50601 0.0329602 0.961261 0.553286
130 0.251896 0.352201 0.00251776 0.528884 -3.50178 -0.270941 -0.266291 -0.632906
136 0.302938 0.347162 0.0477869 0.845571 -3.46863 -0.154744 0.0820917 1.46772
175 0.351876 0.398956 0.0524658 0.251323 -3.49833 -0.494699 -0.0251996 -0.229816
140 0.398159 0.348083 0.0509353 0.254016 -3.51278 0.0583438 0.546279 -0.470754
179 0.448344 0.402782 0.0491006 0.374749 -3.50786 0.0825001 -0.864384 0.0623113
138 0.447173 0.34952 0.00106934 0.335621 -3.47918 0.618355 0.525838 1.20485
144 0.498912 0.348486 0.0509828 0.352842 -3.49457 -0.107987 0.513841 -1.28979
183 0.550543 0.397905 0.0506281 0.411662 -3.52083 0.251899 0.965196 -0.257859
148 0.601357 0.35 0.0499799 0.211125 -3.50456 -0.56223 0.113818 -0.636878
146 0.6503 0.351018 -0.000904735 0.344521 -3.50294 0.30557 -0.160387 0.607981
187 0.648523 0.400515 0.051139 0.144118 -3.51191 -0.0667098 -0.020185 -0.0493564
152 0.696753 0.352394 0.0547086 1.25201 -3.49391 0.92139 -0.341377 -0.989958
191 0.751281 0.401694 0.0479061 0.560939 -3.48212 -0.644336 -0.941014 1.0969
150 0.750301 0.348564 -0.00179548 0.468665 -3.49049 0.633388 0.818057 1.00343
156 0.801045 0.353123 0.0504352 0.381422 -3.51057 0.217836 -0.367963 -0.410035
160 0.900112 0.35261 0.0491285 0.395666 -3.46938 0.087607 -1.0719 0.471076
195 0.852125 0.399715 0.0501575 0.233513 -3.50249 -0.317573 0.783598 0.510826
154 0.8481 0.35171 -0.00238111 0.499931 -3.51555 0.548121 -0.556452 0.466636
124 1.00188 0.348607 0.0506868 0.22248 -3.49201 -0.636686 0.802821 -0.129615
158 0.952054 0.348945 -0.000191229 0.200801 -3.524 -0.153815 0.0497503 0.0724091
199 0.9487 0.397995 0.0511813 0.510888 -3.50403 1.01238 0.820208 -0.28745
161 1.00417 0.399715 -0.000783483 0.506518 -3.4906 -1.16072 -1.17505 0.658984
203 0.046868 0.501786 0.0500678 0.334132 -3.5076 0.792275 0.224301 0.128188
164 0.00163468 0.448664 0.0513174 0.399239 -3.50035 -0.899357 1.02177 -0.176591
168 0.0955362 0.451271 0.0485069 0.771065 -3.49056 0.447064 0.388763 0.718109
205 0.102556 0.500074 -0.00268742 0.904593 -3.47811 -1.326 0.134467 1.16279
207 0.151522 0.501936 0.0505123 0.33722 -3.50575 -0.361702 -0.452022 0.0795654
172 0.200452 0.449274 0.054226 0.513324 -3.48475 -0.0608907 0.352845 -1.17979
176 0.299594 0.447921 0.0543068 0.347961 -3.49999 0.115482 0.435108 -0.779854
215 0.348657 0.499296 0.0524195 0.124888 -3.48827 0.0738724 -0.522096 -0.824892
174 0.349356 0.447324 -0.000897275 0.314152 -3.49903 -0.0776495 0.467457 1.18655
180 0.398444 0.449862 0.0512566 0.101692 -3.51683 -0.13732 -0.191064 -0.415055
217 0.396124 0.500432 0.000996999 0.0785234 -3.50489 -0.0174516 -0.229214 -0.5407
184 0.499793 0.450613 0.0511266 0.130724 -3.52156 -0.0589268 0.0831087 -0.0961958
188 0.59887 0.452023 0.0495763 0.263565 -3.52549 0.016938 -0.128199 -0.13358
227 0.649734 0.501787 0.05243 0.195773 -3.50712 -0.0165735 -0.393766 -0.858451
192 0.699978 0.451094 0.0504991 0.100134 -3.52085 0.0715115 -0.0165451 0.425725
196 0.796773 0.449431 0.0516221 0.461586 -3.49448 1.01997 0.367048 -0.472667
231 0.749305 0.500359 0.052573 0.114272 -3.50456 0.463513 0.137396 -1.00749
190 0.746875 0.450884 0.00134054 0.281691 -3.50947 0.472021 0.176056 -0.199758
233 0.797402 0.499982 0.000428812 0.174917 -3.51304 0.228601 -0.0778632 0.273661
194 0.851429 0.449217 0.00189152 0.321109 -3.5173 -0.68909 0.393628 -0.124454
200 0.901518 0.452392 0.0511298 0.206662 -3.51718 -0.125155 -0.833217 0.0555496
235 0.850815 0.4999 0.0479908 0.393925 -3.52161 -0.16645 0.0874085 0.406454
198 0.950535 0.449383 0.0027349 0.328915 -3.48625 0.210916 0.455626 -0.366271
239 0.948536 0.503107 0.0493701 0.397262 -3.48783 0.318469 -0.680307 -0.457668
204 -0.00243604 0.550082 0.0481337 0.223768 -3.50479 -0.125956 0.602673 0.293743
202 0.0449718 0.547922 -0.000254513 0.653122 -3.47548 1.10418 0.938277 0.000672127
208 0.0989939 0.551281 0.0506437 0.127811 -3.51025 -0.23718 -0.367963 -0.244163
211 0.246934 0.500069 0.0518441 0.289921 -3.51346 1.18134 -0.168463 -0.341187
212 0.200352 0.550703 0.0498347 0.130083 -3.51285 0.065829 -0.00356001 0.990196
210 0.249746 0.548861 0.00183372 0.0986369 -3.5247 0.456182 0.160848 -0.174044
216 0.301391 0.548718 0.0515734 0.210526 -3.51207 -0.767814 0.150749 -0.112195
220 0.396055 0.551891 0.0515555 0.283173 -3.51746 0.239193 -0.272296 -0.0778303
219 0.444785 0.498923 0.0527416 0.428182 -3.50802 0.382731 0.487458 -0.109964
224 0.499771 0.551045 0.0493745 0.420813 -3.46408 -0.983681 0.266854 1.03789
223 0.54936 0.501502 0.0531339 0.196211 -3.51229 -0.11281 -0.476744 -0.33567
228 0.600063 0.551143 0.053894 0.197148 -3.51457 0.189856 0.292229 -0.328189
225 0.598535 0.506243 0.00401414 0.788249 -3.47718 0.231704 -1.43929 -0.418022
226 0.650742 0.553871 0.00261084 0.265032 -3.51319 -0.278785 -0.509801 0.268624
232 0.701026 0.548789 0.0493394 0.461124 -3.49287 0.174251 1.14411 0.967434
236 0.800225 0.550753 0.0528164 0.243502 -3.51296 -0.0904978 -0.153041 -0.707463
237 0.900507 0.50171 -0.00130028 0.286187 -3.52059 -0.00767286 -0.262389 -0.139061
240 0.902361 0.548989 0.0498026 0.601817 -3.49507 -1.03784 0.459377 0.459605
238 0.946475 0.551479 -0.0030444 0.460413 -3.50407 0.647642 0.0849626 0.751139
243 0.0504572 0.602015 0.0501706 0.200828 -3.50056 -0.140054 -0.762344 0.230609
244 -0.00108257 0.648736 0.0514069 0.186944 -3.51822 -0.0665292 0.144493 -0.360524
247 0.150594 0.600877 0.0525909 0.218665 -3.49151 -0.392822 -0.292118 -1.1818
248 0.0973923 0.649449 0.0522442 0.37457 -3.49121 0.699956 0.576874 -0.771735
252 0.200338 0.648952 0.0503495 0.126658 -3.51689 0.709794 0.452355 -0.108745
251 0.250898 0.599831 0.049699 0.104433 -3.52034 0.355132 0.313872 0.24711
256 0.298929 0.650497 0.0514079 0.219758 -3.49015 0.968568 0.0558912 -1.13221
255 0.347561 0.599936 0.0514519 0.168721 -3.49761 0.393479 -0.190851 -0.42602
253 0.300789 0.599703 -0.000337179 0.109007 -3.4938 -0.209822 0.151833 0.180413
254 0.350063 0.650377 0.000201189 0.121904 -3.51376 -0.773025 0.342224 -0.471964
260 0.398096 0.649669 0.0504085 0.172111 -3.49541 0.913127 0.177542 -0.242589
259 0.448287 0.59843 0.0529332 0.426795 -3.48759 0.68571 1.26004 -0.649738
258 0.451277 0.650151 -0.000650222 0.26418 -3.4873 -0.179068 0.0220016 1.05062
264 0.503244 0.652843 0.0526792 0.358496 -3.49005 -0.469359 -1.53724 -0.473191
263 0.551489 0.599799 0.0519902 0.283063 -3.49693 -1.09002 0.547126 -0.935977
265 0.599277 0.599663 -0.00014941 0.406078 -3.51366 -0.282215 -0.00337159 0.553907
268 0.596839 0.650382 0.0504678 0.5004 -3.49147 1.30292 0.193738 1.34742
266 0.649304 0.650992 0.000676905 0.201052 -3.5218 0.249781 -0.00974764 0.295797
267 0.651376 0.601641 0.0531874 0.333145 -3.52076 -0.191042 0.130013 -0.370269
269 0.700469 0.601868 0.000627197 0.131998 -3.49454 0.0643729 0.419368 0.980296
272 0.703075 0.653376 0.0513935 0.440877 -3.49756 -0.432784 -0.848222 -0.137849
271 0.751004 0.602425 0.0524075 0.149154 -3.4901 -0.361749 -1.04528 -0.606371
276 0.797738 0.652938 0.0519833 0.355169 -3.51191 0.54358 -0.209407 0.191617
270 0.75018 0.651617 0.0026065 0.205909 -3.49291 0.502546 -0.888183 -0.912065
273 0.797793 0.601578 0.00367811 0.511001 -3.47301 -0.0428677 -0.210312 -1.24164
275 0.849712 0.603324 0.0497 0.286037 -3.49463 -0.444559 -1.2184 0.132248
277 0.895375 0.599444 0.000125189 0.558602 -3.4927 1.4234 1.55516 -0.521609
280 0.899218 0.6526 0.0493781 0.167818 -3.51845 -0.0882619 -0.601588 0.212285
274 0.849853 0.651571 -0.000452216 0.182324 -3.51989 -0.349326 0.258464 0.026146
279 0.945803 0.601369 0.0494589 0.421481 -3.50524 0.665092 -0.702113 -0.197141
283 0.0487939 0.696286 0.0517107 0.425124 -3.5026 -0.415084 0.874639 -0.69703
284 -0.000985961 0.749739 0.0501042 0.0955612 -3.50068 0.0697551 0.475042 -0.492215
287 0.1477 0.696434 0.0480819 0.651392 -3.46123 0.637728 1.82242 1.07166
288 0.0979709 0.748466 0.0503203 0.122277 -3.50857 -0.00544506 0.351652 -0.627171
291 0.250229 0.698546 0.0490484 0.144548 -3.5118 -0.701246 0.268487 0.537465
295 0.352772 0.701208 0.0465056 0.640838 -3.47569 -1.23241 -0.368841 1.10902
294 0.352112 0.752517 -0.0018946 0.368575 -3.51729 -0.338712 -0.434723 -0.180447
296 0.301075 0.74897 0.0479985 0.23036 -3.53045 -0.271744 -0.0152785 0.237189
299 0.452299 0.700996 0.0494871 0.138107 -3.49463 -0.360507 -0.783081 0.341157
303 0.550714 0.701324 0.0534296 0.193529 -3.49368 -0.164512 0.0325471 -1.19009
305 0.601553 0.701922 0.00163726 0.183767 -3.51996 0.030713 -0.0382659 -0.00477408
308 0.601562 0.750963 0.0540256 0.273185 -3.51648 0.0695041 0.172633 -0.447972
307 0.653266 0.700256 0.0518345 0.281334 -3.51098 -0.690415 0.319086 -0.112405
306 0.652439 0.750908 0.000962874 0.221483 -3.50511 0.125722 -0.484105 0.0336537
309 0.701455 0.699412 0.00133318 0.166348 -3.51479 -0.119825 0.476396 -0.295124
311 0.749978 0.701247 0.0526623 0.209792 -3.50066 -0.0136541 0.571628 -0.112225
313 0.798116 0.698513 0.000973695 0.347206 -3.47068 0.440073 -0.431794 -0.796812
315 0.849373 0.701827 0.0499003 0.109258 -3.52378 0.0568383 -0.15695 0.128327
320 0.900056 0.749795 0.049068 0.130913 -3.50877 0.00103639 0.243236 0.166046
317 0.901038 0.702661 0.000235589 0.235413 -3.51758 -0.292559 -0.490648 -0.559414
319 0.94735 0.701665 0.0502922 0.248285 -3.50701 0.566928 -0.176287 -0.41116
323 0.0479862 0.799155 0.0510011 0.293029 -3.51286 0.476737 0.014042 0.344368
321 0.00261373 0.801395 -0.00189442 0.631759 -3.46676 -0.711511 -0.69181 1.4096
327 0.146993 0.796365 0.0499708 0.38375 -3.51266 1.2316 0.166652 -0.241117
292 0.202979 0.747742 0.0504558 0.656493 -3.49949 -1.22782 0.347312 -0.328812
331 0.249397 0.798318 0.0494684 0.10241 -3.51717 0.00468686 -0.292527 0.186222
333 0.300989 0.800553 0.0015413 0.389863 -3.51968 -0.379757 -0.0763841 -0.732469
335 0.351895 0.798013 0.049111 0.227023 -3.51535 -0.314297 0.177911 0.0633801
300 0.402084 0.748809 0.0478799 0.185678 -3.52155 -0.180356 0.405473 0.344986
339 0.450056 0.800879 0.0495982 0.210013 -3.50689 0.420077 -0.434912 -0.47727
337 0.399949 0.800066 -0.00185343 0.174719 -3.499 0.333889 0.807739 0.672352
304 0.499909 0.751198 0.05059 0.205766 -3.48936 0.405526 -0.472707 0.00902864
343 0.551213 0.800679 0.0512049 0.120393 -3.50419 0.0708439 0.358918 -0.300284
312 0.700243 0.749396 0.0513329 0.127639 -3.49269 0.42395 0.556746 0.503765
347 0.651999 0.801882 0.0499037 0.318151 -3.49854 0.0156439 -1.14378 0.362517
349 0.700112 0.803049 0.00155428 0.622561 -3.42897 0.788576 -1.09592 0.0453997
351 0.749659 0.800631 0.0519131 0.207841 -3.49765 -0.520994 0.881949 -0.162844
316 0.798596 0.751684 0.0491097 0.142281 -3.51974 0.383206 0.631332 0.388288
355 0.850372 0.801752 0.0467942 0.290725 -3.52069 -0.320928 -0.252907 0.0366399
359 0.949807 0.800509 0.0499688 0.131742 -3.50655 0.619166 0.721996 -0.711008
322 0.0503866 0.846873 0.000914996 0.271007 -3.50289 0.259109 0.893716 -0.00522092
324 -0.00219578 0.852698 0.0486152 0.482864 -3.52287 -0.354857 -0.627982 0.0890464
363 0.0525085 0.899521 0.0504799 0.520888 -3.49808 -0.453277 -0.331325 -0.310504
328 0.102498 0.846712 0.0488453 0.317317 -3.50145 -0.458404 0.636655 1.02707
365 0.100754 0.89652 -0.00250525 0.169903 -3.52754 -0.193807 0.0516721 0.110036
367 0.151702 0.89787 0.0493939 0.135526 -3.51104 -0.486851 -0.30005 0.522463
326 0.149992 0.846514 0.000101679 0.217585 -3.50252 0.259419 0.252115 0.174752
332 0.200919 0.847463 0.0525558 0.596813 -3.46683 -0.242195 -0.542496 -1.84514
371 0.251273 0.897535 0.0477904 0.288523 -3.51331 -0.932548 0.605985 0.645585
330 0.24725 0.847089 -0.00272952 0.551279 -3.49016 0.677452 0.564308 0.598317
336 0.298409 0.847453 0.050759 0.300061 -3.49175 0.788007 0.496087 -1.00391
375 0.353384 0.898097 0.0486843 0.317979 -3.50481 -0.490516 -0.236649 0.122029
373 0.300503 0.900215 -0.000670747 0.205021 -3.48053 0.616744 -1.37147 0.439407
340 0.400731 0.849668 0.0529064 0.755298 -3.46114 0.0627716 0.273816 -1.89989
377 0.405398 0.896616 -0.00520874 1.12251 -3.45632 -1.11276 0.488568 1.64218
379 0.452547 0.899081 0.0483869 0.268554 -3.51362 -0.951553 -0.0646607 0.852865
344 0.499032 0.850147 0.0481135 0.334729 -3.48592 1.07344 0.740735 -0.834585
383 0.547617 0.903986 0.0499318 0.761648 -3.48293 0.930901 -1.11918 -0.477799
348 0.601855 0.847379 0.0502127 0.61898 -3.48326 0.33662 1.29512 -0.475105
385 0.602417 0.899608 -0.0012073 0.207178 -3.482 0.625003 0.243931 0.606617
387 0.651919 0.902209 0.0507503 0.267154 -3.49008 -0.383776 -0.769131 -0.645219
352 0.699189 0.850346 0.0519975 0.250958 -3.50116 0.33067 0.891628 0.00351067
346 0.655754 0.850805 -0.00051678 0.564702 -3.42483 -2.18095 0.219451 -0.228232
389 0.699444 0.900616 0.000875432 0.230134 -3.50893 1.35047 0.261691 -0.561848
391 0.751786 0.89902 0.0512464 0.234546 -3.51046 -0.630597 0.0821423 -0.464465
356 0.800875 0.851391 0.0496826 0.218904 -3.51256 -0.219217 -0.513492 -0.0557458
350 0.747809 0.848359 -0.000666907 0.370911 -3.47959 0.0419055 0.726582 0.378247
393 0.796211 0.89928 -0.000251951 0.390647 -3.50379 0.507251 0.373535 0.408379
360 0.898879 0.852703 0.0493114 0.346205 -3.51642 0.0109335 -0.855324 0.21796
395 0.848041 0.901339 0.0489092 0.282709 -3.50922 0.387842 -0.14688 0.178698
354 0.849357 0.85265 -0.00381961 0.42798 -3.51466 0.110235 -0.427645 0.651335
397 0.902973 0.899145 1.95094e-05 0.819727 -3.49031 -0.761315 -0.218295 -1.12881
399 0.945731 0.901373 0.0475496 0.4357 -3.42774 0.384326 0.55342 1.0308
361 0.997295 0.898012 0.00161426 0.404865 -3.509 0.347289 0.236282 -0.143969
364 -0.00334376 0.948003 0.0499878 0.309614 -3.51843 0.696513 0.276123 -0.543383
366 0.148154 0.947279 -0.000785025 0.257413 -3.50825 0.454321 0.226602 -0.297639
368 0.0998716 0.946046 0.0480024 0.373942 -3.48043 0.599871 1.586 0.357694
372 0.202668 0.948592 0.0495237 0.25031 -3.51116 -0.556434 0.297658 0.00938875
376 0.301665 0.947059 0.0516254 0.393182 -3.504 0.237061 0.432353 -0.941011
380 0.400546 0.945873 0.0479446 0.336617 -3.50765 0.420465 0.0766539 0.0231198
384 0.499438 0.948759 0.0523759 0.531339 -3.483 -0.10112 1.01244 -1.17368
23 0.550655 0.999595 0.0485279 0.201489 -3.51103 -0.237884 -0.0836278 0.0577006
388 0.599742 0.95135 0.0497234 0.106988 -3.51886 0.449169 -0.246013 -0.0533444
27 0.652214 1.00167 0.0533489 0.348449 -3.52417 -0.182126 -0.383787 -0.181073
392 0.698704 0.949037 0.0526861 0.373705 -3.49477 0.533422 0.368818 0.357208
386 0.652235 0.952246 4.83173e-05 0.1473 -3.52497 -0.369288 -0.0599847 0.5647
396 0.800053 0.948405 0.0521435 0.228697 -3.50058 -0.122854 0.380593 -0.766557
390 0.749852 0.952059 0.00359864 0.323686 -3.51547 0.223999 -0.716681 -0.395903
33 0.801182 0.999861 0.000450145 0.209895 -3.46376 -0.156788 -0.742023 0.289486
400 0.897895 0.949394 0.0474991 0.259498 -3.47387 0.674788 0.0949159 1.61857
39 0.947605 1.00035 0.0480093 0.158644 -3.51824 -0.094935 -0.351743 0.0615679
398 0.94853 0.95324 -0.00339757 0.921863 -3.51541 -0.0180246 -0.883064 1.012
402 0.0530173 0.0495814 0.0975273 0.347574 -3.50519 -0.471928 -0.185067 0.469964
404 -0.000775482 0.0499307 0.151995 0.606197 -3.47035 0.856173 -1.22436 -0.442766
401 0.00237903 -0.00138298 0.0975255 0.489717 -3.49867 -0.459851 0.737375 0.606511
403 0.0532776 -0.000403817 0.147826 0.516895 -3.48666 -0.726401 -0.580166 -0.150774
406 0.150707 0.0471342 0.101991 0.461701 -3.49779 0.0440882 0.637633 0.0651453
408 0.100533 0.0472376 0.148838 0.208392 -3.49873 0.0680826 0.83409 0.698695
405 0.102578 0.000206148 0.0991332 0.331886 -3.48063 -0.600258 -1.14809 -0.378416
407 0.153534 0.000221312 0.149541 0.323583 -3.48754 -0.214464 -0.231198 -0.30781
412 0.205621 0.0487801 0.149979 0.488564 -3.49744 -0.698165 -0.376836 -0.154388
410 0.252823 0.050203 0.0988984 0.351858 -3.49005 -0.198618 -0.966836 -1.09801
409 0.200298 0.00149997 0.0943499 1.19928 -3.49097 0.473756 -0.538053 1.45517
413 0.302587 -0.00210955 0.0965927 0.252067 -3.52288 0.091055 0.448237 0.335571
416 0.299651 0.0496701 0.147649 0.228761 -3.48325 0.639962 0.0200768 -0.770335
414 0.351079 0.0498682 0.0993589 0.172455 -3.50955 0.253579 -0.404961 -0.241538
420 0.399663 0.0499991 0.149125 0.142028 -3.4993 0.184532 -0.317073 0.0555339
418 0.451712 0.0494507 0.103837 0.731799 -3.49463 0.0219973 0.125515 -1.67546
417 0.401273 -0.00272914 0.097379 0.276136 -3.4925 -0.493074 0.908237 0.539442
419 0.451095 0.00022224 0.149383 0.229532 -3.51619 -0.0135744 0.0239035 0.481746
424 0.506628 0.0522819 0.148211 1.00986 -3.48859 -0.834802 0.0442569 0.183081
421 0.500948 -0.000620679 0.102082 0.212396 -3.51671 -0.042556 -0.151284 -0.290292
422 0.549846 0.0485589 0.0998503 0.345505 -3.4518 0.496305 0.368586 -0.296691
423 0.550371 -0.00165477 0.149651 0.247978 -3.50593 -0.0209118 0.298504 -0.191125
425 0.597215 -0.000684432 0.100355 0.547126 -3.50367 0.515962 0.346647 -0.450169
428 0.601244 0.0490885 0.149151 0.31979 -3.45525 -0.601245 1.37119 -0.814784
426 0.651217 0.0533374 0.0990074 0.385162 -3.50295 0.412296 -0.721844 0.173263
429 0.701929 0.00145329 0.103391 0.285082 -3.463 0.785447 -0.868032 -0.616367
432 0.701911 0.0522633 0.152998 0.476405 -3.5105 -0.327137 0.0654395 -0.422829
430 0.750048 0.0503843 0.101012 0.133933 -3.47516 -0.0150543 0.58007 -0.00172452
433 0.801849 -0.000277169 0.101744 0.199162 -3.52442 -0.146488 0.160739 -0.104612
436 0.802859 0.0492537 0.150427 0.432081 -3.48592 -0.69379 0.577044 0.5092
434 0.854305 0.0502752 0.101335 0.404705 -3.50793 -0.445681 0.398056 0.123664
435 0.850928 0.000463566 0.151834 0.204136 -3.52393 -0.146683 0.132107 -0.129454
437 0.899272 0.000532717 0.100886 0.195543 -3.45346 -0.341411 -0.40967 -1.02149
440 0.899499 0.0510337 0.151246 0.237133 -3.52206 0.2425 -0.207665 0.243166
438 0.949816 0.0465498 0.0989289 0.427219 -3.48913 0.204173 1.36195 0.610774
439 0.947833 -0.00104524 0.146491 0.487902 -3.46481 -0.311157 -0.486961 1.48913
441 0.000978394 0.096126 0.0982067 0.519195 -3.49593 -0.29834 0.993792 0.478104
442 0.0493773 0.146703 0.0981844 0.311426 -3.52537 0.433615 0.247357 0.200762
443 0.0511828 0.0966623 0.151307 0.327092 -3.52297 -0.133817 0.104826 -0.409271
444 0.00219429 0.148867 0.150977 0.1973 -3.49356 -0.206285 -0.443118 -0.846659
445 0.100946 0.0986299 0.0996931 0.13699 -3.52398 -0.0786299 0.0903457 -0.113113
446 0.15028 0.147366 0.0981533 0.224178 -3.5184 0.197151 -0.0569399 -0.00534699
447 0.150874 0.0982706 0.150146 0.0891585 -3.52751 -0.250299 -0.0437811 -0.0818727
448 0.0998178 0.148775 0.149902 0.119532 -3.47329 0.107576 -0.244135 0.269082
449 0.201842 0.0969369 0.101294 0.319127 -3.5194 -0.210144 0.478299 -0.222732
452 0.198077 0.149278 0.151163 0.405326 -3.50043 0.0666583 -0.491107 -0.593265
450 0.248598 0.149957 0.100585 0.250611 -3.50753 0.489017 -0.334151 -0.0816909
451 0.253889 0.096728 0.14774 0.599088 -3.48501 -0.418773 1.09051 0.5633
453 0.299363 0.0999593 0.0961121 0.457526 -3.50844 0.492952 -0.466252 0.276269
456 0.298913 0.147933 0.148102 0.251986 -3.47038 -0.949627 0.902413 -0.377405
454 0.351311 0.150663 0.0999681 0.154593 -3.52329 -0.174843 0.377655 -0.00939611
455 0.348187 0.100947 0.145459 0.562908 -3.49332 0.708179 -0.133118 1.30741
457 0.403926 0.101321 0.0982237 0.497706 -3.51042 -0.59474 -0.320149 0.637919
460 0.401095 0.152216 0.149734 0.19324 -3.51458 -0.272984 -0.185763 0.177488
458 0.451886 0.151329 0.101927 0.211422 -3.49091 -0.722724 -0.0159655 -1.30271
459 0.448855 0.102671 0.151396 0.555794 -3.51006 0.504685 -0.39598 -0.137206
461 0.499276 0.102271 0.0992564 0.444414 -3.49434 1.66286 -0.0888296 1.2833
464 0.499886 0.153665 0.151457 0.284662 -3.50162 0.603203 -0.946647 -0.560202
463 0.552869 0.103971 0.149903 0.402132 -3.44129 0.102803 -0.899488 0.452047
462 0.55342 0.152908 0.100569 0.387981 -3.49831 -1.02754 -0.443827 -0.073225
465 0.601438 0.101468 0.0959821 0.64243 -3.47971 -0.379505 -0.387693 1.75401
468 0.601244 0.152095 0.147758 0.21605 -3.47095 0.172196 -0.397934 -0.34752
466 0.653125 0.150936 0.0999218 0.351387 -3.5222 -0.738322 0.381739 -0.0352181
467 0.64665 0.102849 0.152174 0.936894 -3.50435 0.401476 -0.672027 -0.328206
469 0.699481 0.100298 0.10111 0.286435 -3.48046 1.02596 0.756029 -0.500865
472 0.702884 0.149231 0.149207 0.392622 -3.5104 -0.126548 0.778499 -0.206377
471 0.75026 0.100843 0.151517 0.157025 -3.51673 0.449239 -0.139396 -0.10354
470 0.755197 0.147784 0.098653 0.849536 -3.45108 -2.05524 2.37839 -0.276844
473 0.802185 0.100918 0.100131 0.234398 -3.47523 0.167076 -0.0473154 0.784473
476 0.797734 0.152537 0.15132 0.405562 -3.48232 1.07963 -1.11506 -0.278469
474 0.850819 0.148931 0.101092 0.290016 -3.50379 -0.315365 0.392969 -0.655753
475 0.846862 0.101337 0.153165 0.84479 -3.50827 0.812113 0.0575744 -0.551784
477 0.903622 0.0987098 0.100002 0.529373 -3.50571 -1.214 0.181288 -0.0418743
480 0.901412 0.148519 0.14706 0.459083 -3.51616 -0.399544 0.0729759 0.727502
478 0.949721 0.15123 0.0982396 0.273443 -3.49273 0.498203 -0.877435 0.267973
479 0.951943 0.100332 0.149997 0.161349 -3.4899 0.0645613 -0.990717 -0.869793
483 0.0510281 0.198039 0.148231 0.270315 -3.49984 -0.305332 0.284071 0.932566
485 0.0990855 0.197554 0.0997595 0.153236 -3.51848 0.228395 0.223334 -0.0508716
487 0.148584 0.198351 0.148601 0.180763 -3.5227 0.135887 0.255379 -0.0266086
488 0.101564 0.250041 0.149348 0.252984 -3.51735 -0.155151 -0.238179 0.124987
489 0.200314 0.199675 0.100116 0.126399 -3.50413 -0.416989 -0.297434 -0.0824814
491 0.251672 0.200742 0.152194 0.459545 -3.50869 0.0592283 -0.265056 -0.428139
492 0.200051 0.248862 0.150175 0.15832 -3.50563 -0.27225 -0.379507 -0.229406
493 0.301835 0.202209 0.100228 0.373947 -3.44487 -0.874641 -0.179345 0.450974
495 0.34571 0.199441 0.148124 1.00354 -3.48243 1.47949 0.0553687 1.90785
497 0.403051 0.199814 0.102424 0.51668 -3.5149 -0.144401 -0.144412 -0.155501