ITEM: TIMESTEP
3250
ITEM: NUMBER OF ATOMS
4000
ITEM: BOX BOUNDS pp pp pp
2.8508545628939497e+00 3.3249145437105980e+01
-1.7480746942817369e+00 3.7848074694281763e+01
-1.5108405513647973e+00 3.7610840551364802e+01
ITEM: ATOMS id xs ys zs c_csym c_peratom fx fy fz
3 0.0478074 0.00920204 0.0519937 5.49533 -3.50038 0.0976674 -0.246219 -0.52863
4 -0.00269215 0.057394 0.0512178 5.12037 -3.5022 0.448476 -0.23858 -0.176246
1 -0.00357273 0.0146131 -0.00114005 5.6313 -3.48115 0.568592 0.606609 0.418614
5 0.101613 0.0119084 0.00176977 5.44749 -3.48155 -0.314542 0.86709 -0.117709
8 0.100158 0.059381 0.050052 0.168715 -3.51268 0.180897 -0.168135 0.0984252
7 0.150387 0.00810658 0.0498155 0.101049 -3.50433 -0.110565 0.244104 0.318351
6 0.151757 0.0671056 0.00073205 0.122328 -3.50703 -0.227383 -0.269421 -0.101191
9 0.202299 0.0157816 0.00185339 4.95491 -3.52504 -0.294282 0.260595 -0.385487
12 0.203582 0.0589242 0.0502933 0.202495 -3.50161 -0.512266 -0.193926 -0.379592
16 0.304157 0.0594072 0.0495245 5.12115 -3.47698 -0.110905 -0.287617 0.126444
10 0.251355 0.0666443 -0.00173757 5.23681 -3.49029 0.178006 0.00727523 0.304796
11 0.25308 0.00878402 0.0485227 0.134175 -3.5031 -0.187222 0.15753 0.258955
13 0.300314 0.0168346 -0.00134545 5.29559 -3.49978 0.264008 0.0697102 0.779471
17 0.404311 0.0176126 -0.000271615 4.9779 -3.49353 -0.320743 0.0455298 0.0759471
15 0.35414 0.00960522 0.0498816 0.232385 -3.48873 -0.191673 -0.0259024 0.0132225
20 0.398933 0.0613048 0.0488942 5.27358 -3.48628 0.736631 -0.273737 0.170708
19 0.453432 0.00692677 0.0506895 4.91729 -3.48749 -0.459232 0.686246 0.020529
24 0.499354 0.0614757 0.0519785 0.4046 -3.48373 0.460249 0.0155101 -0.366036
23 0.547184 0.00793896 0.0494809 0.615512 -3.49025 0.799001 0.312331 0.416929
22 0.551635 0.0697072 0.000323208 0.146129 -3.51151 -0.426544 -0.01501 -0.0221672
28 0.5981 0.0599997 0.0511107 0.205052 -3.50349 0.330273 -0.146412 -0.135534
25 0.598989 0.0201747 -0.00281015 5.22497 -3.48407 0.375082 -0.48063 1.0677
27 0.647814 0.0108957 0.0505523 5.18128 -3.48023 0.366716 0.276276 -0.30269
32 0.698734 0.0609672 0.0507401 0.186014 -3.50692 0.204296 -0.435971 0.196822
31 0.745947 0.00826072 0.0520942 5.41089 -3.49856 0.00360982 -0.164115 -0.266854
30 0.749124 0.0683721 1.65214e-05 5.43807 -3.51229 0.0220756 -0.0235973 0.724523
33 0.796873 0.0161875 0.00211727 0.120428 -3.511 0.11228 0.231588 0.185697
36 0.794767 0.0580926 0.0546482 5.08507 -3.488 0.304849 -0.153926 -0.861354
35 0.846483 0.00684315 0.0514328 5.69825 -3.5008 0.429302 0.231813 0.0223535
40 0.90323 0.0568089 0.0544897 4.89486 -3.46653 -0.858985 -0.17465 -1.02453
39 0.949519 0.0063508 0.0522263 5.07301 -3.50296 -0.10613 0.0240087 -0.480161
43 0.0457448 0.107067 0.049992 5.42801 -3.48409 0.823408 0.010357 0.133978
47 0.155678 0.10847 0.0501647 5.24661 -3.50476 -0.545324 -0.262435 -0.0294858
45 0.101605 0.117908 -0.00053018 5.47274 -3.49547 0.0607342 -0.326939 0.340644
49 0.203529 0.116326 -0.00160417 5.09723 -3.48999 -0.539488 0.0653372 0.15419
51 0.255061 0.106685 0.0461489 5.02027 -3.48973 -0.452066 0.665359 0.596226
53 0.303673 0.118997 -0.00546248 4.9945 -3.48206 -0.567488 -0.122681 0.93434
55 0.351991 0.113616 0.0474771 5.13152 -3.49123 0.0772301 -0.256169 0.348189
59 0.450928 0.111486 0.0472377 5.42643 -3.51376 0.025922 -0.13308 0.510455
61 0.49867 0.12154 -0.00173483 5.22775 -3.47328 0.871088 -0.760247 0.27271
63 0.551658 0.113047 0.0527105 5.15655 -3.47092 -0.370413 -0.890649 -1.20674
67 0.651455 0.10873 0.0510577 0.296285 -3.49738 -0.316537 0.063391 -0.163675
69 0.700882 0.119257 -0.0016564 5.31324 -3.49085 -0.301514 -0.154071 0.969085
71 0.749734 0.110723 0.0541015 0.457259 -3.51065 -0.249067 -0.336558 -0.764404
75 0.849795 0.105368 0.0532163 5.18952 -3.49461 -0.133592 -0.0291986 -0.380904
73 0.798682 0.116834 0.00266257 5.56658 -3.49986 0.464494 0.210177 -0.0623944
77 0.899868 0.116139 7.16804e-05 5.2707 -3.49708 -0.157154 -0.352283 0.299438
79 0.953496 0.107555 0.0501356 4.84958 -3.49986 -0.669352 -0.0730166 0.00948143
41 1.00262 0.115933 0.00110899 5.53402 -3.49696 -0.600496 -0.311456 -0.228497
83 0.0525983 0.205864 0.0506242 5.14133 -3.50491 -0.283454 -0.043755 -0.0449048
42 0.0461594 0.164285 0.00128487 5.57494 -3.48805 0.733354 0.354062 0.0704921
48 0.101046 0.15484 0.0527569 5.36882 -3.50189 -0.135668 0.280367 -0.589051
46 0.152163 0.16836 0.00124087 5.14477 -3.49036 -0.0526469 -1.0024 -0.481326
87 0.14786 0.206714 0.0508544 5.06849 -3.49063 0.510163 -0.215178 0.19332
85 0.099633 0.214678 -0.00253155 0.559081 -3.50216 0.0303295 0.202929 0.674975
52 0.203884 0.15557 0.0491008 5.08196 -3.49693 -0.205376 0.668039 0.598061
91 0.250797 0.207628 0.0514869 0.187163 -3.51287 -0.221974 0.271564 -0.235468
56 0.298814 0.160113 0.0487681 4.97522 -3.487 0.523935 -0.22866 -0.232821
54 0.351766 0.168759 -0.00205147 0.304321 -3.50303 -0.114699 -0.106795 0.686803
60 0.40336 0.162099 0.0492341 5.36587 -3.50179 -0.0038137 -0.233764 -0.126615
95 0.355063 0.209987 0.05176 0.41157 -3.49789 -0.398345 -0.258134 -0.666457
58 0.454751 0.168144 -0.00214912 5.03934 -3.46461 -1.01465 0.276739 0.187577
99 0.455179 0.212577 0.0469835 5.12759 -3.49315 -0.38537 -0.24275 0.526875
101 0.503899 0.218634 -0.0012711 5.50968 -3.48656 -0.238049 0.511494 0.576821
64 0.4976 0.16132 0.0505273 5.02313 -3.49856 0.588762 -0.150492 -0.315604
62 0.551524 0.169723 0.00117632 0.234283 -3.52081 -0.139444 -0.132605 -0.0645641
68 0.602795 0.157115 0.0479203 5.24841 -3.47911 -0.236386 1.25018 0.829822
103 0.550306 0.211881 0.051187 4.79649 -3.46841 0.308317 -0.411196 -0.759681
107 0.64767 0.209393 0.050807 4.92736 -3.45008 1.04586 0.639428 -0.598116
72 0.696424 0.159413 0.0505467 5.14023 -3.51926 0.53434 0.247038 0.119673
109 0.699485 0.222132 0.00121375 5.24673 -3.50353 0.173156 -1.10865 -0.0152729
111 0.748309 0.207581 0.0510102 5.35711 -3.4856 -0.1061 0.317702 0.276672
70 0.749171 0.168943 0.000820563 5.46641 -3.47395 -0.0166435 -0.130955 0.462788
76 0.801729 0.158745 0.0530898 4.8036 -3.50776 -0.185635 0.104032 -0.113566
80 0.89585 0.154139 0.0515117 4.65143 -3.4831 0.624876 0.726409 0.764459
115 0.853007 0.209511 0.054097 4.61573 -3.4669 -0.975672 -0.376683 -0.804617
74 0.851768 0.166932 0.00143973 4.84611 -3.51372 -0.514788 -0.0330409 0.240539
113 0.797514 0.21735 0.00327611 5.39441 -3.49884 0.738107 0.059147 -0.0694102
117 0.900112 0.215477 0.000219949 5.52627 -3.48305 0.104035 0.831327 0.590055
44 0.999458 0.159302 0.0510264 0.576171 -3.4974 -0.114279 -0.611486 -0.235798
119 0.941671 0.204626 0.052234 4.63969 -3.45083 0.972531 0.850153 -0.212097
81 1.00123 0.214919 0.00176103 5.13841 -3.48271 -0.628372 0.00704018 -0.25605
123 0.052258 0.306176 0.0479593 4.75018 -3.47273 -0.354277 0.115653 0.507442
82 0.0500121 0.265001 -0.00224542 0.354601 -3.49801 0.171781 -0.118334 0.0200186
88 0.0996606 0.253158 0.0518613 5.20852 -3.48311 0.147454 0.996198 -0.118094
127 0.149065 0.306664 0.051569 5.22222 -3.49917 -0.500732 -0.268415 -0.212227
92 0.197856 0.256787 0.0501797 5.4782 -3.50389 -0.16319 -0.222022 0.426454
131 0.246669 0.304312 0.050477 4.73468 -3.49087 0.626517 0.790318 0.153279
96 0.299671 0.257292 0.0510177 0.125071 -3.51848 0.193908 -0.0194545 -0.327887
100 0.403916 0.258526 0.0508247 5.16176 -3.49798 0.0518622 0.164159 -0.253018
104 0.502622 0.263038 0.049605 5.44925 -3.50562 0.0383616 -0.398934 -0.625243
98 0.45077 0.269904 -0.00297266 0.510874 -3.47808 0.519543 -0.269537 0.437596
143 0.552381 0.314571 0.0530791 5.09719 -3.47742 0.265386 -0.597175 -1.10257
102 0.552889 0.272414 0.000363656 5.40313 -3.48956 -0.233148 -0.724818 -0.0854489
108 0.600588 0.264273 0.0511765 5.53895 -3.4906 0.192959 -0.531373 -0.651203
106 0.651988 0.268407 -0.000644441 5.37962 -3.50061 -0.249969 0.610846 0.130104
147 0.649709 0.314537 0.0483526 4.93275 -3.50916 0.192193 -0.526685 -0.055817
112 0.700165 0.264148 0.0502715 5.23924 -3.45147 -0.167584 -1.22027 -0.588264
151 0.754745 0.309051 0.0479003 5.07327 -3.49974 0.0178831 0.320652 0.873846
116 0.799739 0.257178 0.0527534 5.71029 -3.50179 0.373048 0.419542 -0.0192751
84 1.00435 0.257034 0.0494654 5.46553 -3.44194 -0.778557 -0.280673 0.441744
120 0.897715 0.259287 0.0535429 5.74874 -3.47783 0.433742 -0.226701 -1.29105
159 0.950358 0.308889 0.0511778 5.8545 -3.50163 0.0934192 -0.19637 0.156194
118 0.952128 0.270064 0.000882253 5.33941 -3.47015 -0.206228 -1.08806 0.21575
124 -0.00311024 0.358465 0.0546387 4.59805 -3.48498 0.289006 -0.284881 -0.992545
128 0.0998688 0.355636 0.0500266 5.43852 -3.51009 -0.514639 0.289024 0.426167
133 0.300269 0.314458 0.000569417 0.145004 -3.47442 0.165319 0.216936 -0.0111907
132 0.197588 0.354767 0.0470662 5.32828 -3.47249 0.353434 0.764552 1.16105
130 0.247245 0.365486 -0.000874245 5.58635 -3.52147 0.472164 -0.0367292 0.0853519
135 0.353306 0.305916 0.0509451 5.17057 -3.50738 -0.576574 0.321772 -0.65454
136 0.29971 0.35669 0.0477401 5.75757 -3.50125 0.0152389 -0.018349 0.204921
139 0.452541 0.311157 0.0482248 5.28105 -3.51498 -0.0363484 -0.228627 0.0523636
140 0.398932 0.357979 0.0492405 5.36501 -3.51799 0.229744 -0.123527 -0.185097
144 0.505 0.361029 0.0478027 5.14977 -3.48133 -1.17399 -0.133994 0.270904
145 0.602744 0.318437 -0.00427796 5.7526 -3.47734 -0.166932 -0.0158359 0.79162
148 0.597601 0.361959 0.0467599 4.87731 -3.45251 1.30871 -0.388056 0.545559
152 0.707016 0.359199 0.052876 5.31364 -3.47231 -0.842674 0.419958 -1.07354
156 0.807177 0.360009 0.0510627 5.47395 -3.48374 -0.585388 0.314228 -0.0426377
149 0.702792 0.318132 0.000568984 0.267251 -3.51617 -0.0146993 -0.0124778 -0.388567
153 0.805293 0.317745 0.00103453 5.50492 -3.49932 -0.416751 0.368297 -0.059783
150 0.752099 0.368988 -0.000127397 0.244109 -3.50483 0.38733 -0.129489 0.363226
155 0.850324 0.309817 0.0521114 0.151826 -3.51037 0.247866 -0.415828 -0.197028
154 0.851795 0.371375 -0.00260154 5.40715 -3.47512 0.157247 -0.187863 1.09442
160 0.901524 0.359246 0.0492749 0.239688 -3.47716 -0.271289 0.264788 0.198617
121 1.00384 0.316363 0.000755167 5.62196 -3.49288 -0.588182 0.32533 0.194629
163 0.047666 0.406556 0.0504491 5.39893 -3.48265 0.0106541 0.534685 0.371424
165 0.098735 0.415311 0.000867249 5.27331 -3.52707 0.0927729 0.0322141 0.23779
164 -0.00122989 0.462784 0.047506 0.439546 -3.48862 0.215556 -0.848997 -0.0423381
168 0.0960589 0.45768 0.0523826 5.06275 -3.50012 0.475694 -0.0389892 -0.582678
167 0.149143 0.406256 0.0512791 5.43551 -3.50629 -0.0964374 0.355202 -0.237239
172 0.20013 0.45667 0.0518314 5.23952 -3.4982 -0.00459378 0.0461011 -0.558383
171 0.248613 0.406764 0.0489888 0.124108 -3.51463 0.229006 -0.173137 -0.181351
169 0.199129 0.415117 -0.000415292 0.129814 -3.51474 -0.191857 -0.0523915 0.435262
175 0.351473 0.406609 0.0480078 5.08888 -3.50616 -0.607732 0.477363 0.347358
176 0.297124 0.457111 0.0479187 5.5142 -3.49042 0.551582 0.112211 0.559927
180 0.39683 0.459176 0.0466422 5.15063 -3.48201 0.357914 -0.141523 0.432572
179 0.447047 0.408306 0.0468702 5.34133 -3.50039 0.503759 0.348105 0.466422
184 0.500244 0.462066 0.0477508 5.37223 -3.49208 -0.281771 -0.752777 0.0879246
183 0.550351 0.408616 0.0488915 0.321531 -3.43958 -0.141322 1.36103 0.0187186
188 0.604543 0.459498 0.0492404 5.36921 -3.47561 -0.464004 -0.0246731 -0.258679
187 0.652955 0.410659 0.0469958 0.31175 -3.50789 0.0534507 -0.379891 0.456674
189 0.703407 0.419945 -0.00149499 5.52217 -3.49144 0.0200209 -0.619289 0.23089
191 0.751625 0.410311 0.0508498 5.23286 -3.51261 0.124248 -0.0887166 -0.223871
192 0.70242 0.459236 0.0507334 0.184266 -3.50923 -0.0272469 0.069719 -0.237424
195 0.851964 0.413087 0.0495826 0.31778 -3.48521 0.501054 -0.556175 -0.486742
199 0.950892 0.41187 0.0491252 0.191359 -3.49656 0.0124501 -0.432961 -0.0563604
200 0.904539 0.464209 0.0489492 4.93411 -3.50156 -0.72 -0.425167 -0.262483
203 0.0469752 0.509622 0.0456417 4.8012 -3.49793 0.62621 0.310223 0.999293
162 0.0546394 0.466103 -0.00140978 5.64357 -3.47786 -1.04178 0.341639 -0.192065
205 0.101088 0.514499 -0.00243588 0.488779 -3.49531 0.0263782 0.599644 0.475996
201 0.00161729 0.521419 -0.00345051 5.27735 -3.48027 -0.0745179 -0.704418 0.220298
207 0.147427 0.507745 0.0486342 0.281849 -3.49381 0.360012 -0.193479 0.382223
209 0.200119 0.516679 0.000438553 0.122296 -3.50943 0.109914 0.0254452 -0.0214614
166 0.1493 0.465807 0.000842095 0.142992 -3.48532 0.0398634 0.00318547 0.28998
211 0.250069 0.509703 0.0499651 5.5946 -3.50475 -0.262968 -0.634401 -0.344184
170 0.249924 0.463787 -7.18488e-05 5.06493 -3.50332 -0.585088 0.701067 0.485551
213 0.295451 0.514703 -0.00142649 5.39026 -3.48008 0.22106 0.511132 0.403737
215 0.350089 0.507847 0.0512129 0.329693 -3.48799 -0.467391 -0.0664897 -0.507976
178 0.450151 0.468992 -0.0020839 0.227487 -3.51392 -0.428623 -0.125073 0.364479
219 0.447752 0.509841 0.0489103 5.45792 -3.50303 0.287468 -0.135586 -0.0562595
221 0.501346 0.517757 -0.00128047 0.194715 -3.50846 -0.147228 -0.101117 0.318221
223 0.551121 0.507377 0.051031 0.290665 -3.49527 0.0389667 0.462178 -0.368572
227 0.653435 0.511015 0.0494047 5.20506 -3.52291 -0.404843 -0.379945 -0.103209
231 0.751997 0.508302 0.0499997 5.49884 -3.49094 -0.243799 0.467585 -0.2485
190 0.751405 0.47103 -0.00087365 5.17946 -3.49598 0.045935 -1.05638 -0.339858
196 0.799887 0.459342 0.0509121 5.00684 -3.5063 0.292465 0.341863 -0.342045
235 0.849737 0.509848 0.0498586 5.37813 -3.49635 0.320126 0.0273217 -0.170586
239 0.953883 0.513116 0.0510222 4.82457 -3.46131 -0.395445 -0.6434 -1.29619
237 0.904806 0.518939 -0.00382988 5.20558 -3.47596 -0.642988 0.290171 0.524758
208 0.100924 0.55557 0.0482044 4.8254 -3.50722 -0.349509 0.645217 0.306846
204 0.000616936 0.561019 0.0507279 0.275911 -3.50174 0.506952 0.0522708 -0.506096
243 0.0527141 0.609267 0.0531174 5.07227 -3.45719 -0.382772 0.00827662 -1.0917
212 0.199044 0.56121 0.0499856 5.13222 -3.49947 -0.0878192 -0.728659 -0.185125
247 0.144211 0.609558 0.0506846 5.25467 -3.49409 0.507843 0.0820224 0.268088
216 0.301485 0.558083 0.0502454 5.55392 -3.51579 -0.236919 0.0571776 -0.388824
251 0.249202 0.608808 0.0502268 0.0624272 -3.5091 -0.0664367 0.0846995 0.25259
210 0.250099 0.568896 0.000461361 5.28551 -3.5048 0.0339966 -0.627341 -0.0396978
220 0.398775 0.55858 0.0504969 5.72879 -3.52116 -0.114213 0.0381775 -0.46563
255 0.350024 0.609605 0.0487533 5.53735 -3.51639 0.0789678 -0.397362 0.353901
224 0.500891 0.558958 0.0519326 5.32972 -3.4925 -0.403614 -0.425149 -0.499365
218 0.449026 0.56766 -0.0011527 0.148398 -3.49576 -0.054738 -0.26501 0.24324
259 0.447503 0.608742 0.0495927 5.4266 -3.52582 0.394415 -0.173251 0.230543
228 0.599553 0.558067 0.0496983 5.35195 -3.49834 0.427411 -0.423101 -0.369365
263 0.550991 0.605384 0.0499786 5.1569 -3.50002 -0.211615 0.71879 -0.335854
226 0.648469 0.565748 -0.00226015 5.39152 -3.49884 0.266127 0.1265 -0.163511
232 0.698352 0.561772 0.0460799 4.91174 -3.48991 0.382123 -0.393822 0.512341
267 0.648166 0.608382 0.0453581 4.90826 -3.4941 0.126581 0.178582 0.738881
271 0.749089 0.609144 0.0502682 0.267678 -3.50618 -0.0610377 0.316356 -0.00745016
236 0.797312 0.560843 0.0489806 5.23015 -3.49265 0.510264 -0.163513 0.081035
275 0.851571 0.61034 0.049598 0.243994 -3.50637 0.259181 -0.486229 -0.331649
240 0.901987 0.558792 0.0506858 5.63075 -3.50589 -0.444177 0.323203 -0.620527
279 0.953199 0.609474 0.0481251 0.364587 -3.49905 -0.323549 0.244496 0.796688
238 0.950904 0.57003 -0.00249938 0.347158 -3.47326 0.606188 -1.39116 0.0760963
248 0.0991299 0.664004 0.0481947 5.30947 -3.45128 -0.464008 -1.31693 -0.0443188
244 -0.00176777 0.661477 0.04759 5.18863 -3.49653 0.32196 -0.614166 0.136452
252 0.197073 0.658249 0.0491015 5.21798 -3.51351 0.308258 0.147883 0.708302
249 0.199433 0.614632 0.00101047 5.1635 -3.4855 -0.436889 0.878404 -0.123272
256 0.300347 0.656269 0.0516829 5.57336 -3.49259 -0.272971 0.735074 -0.353437
260 0.398733 0.659106 0.0484275 5.46342 -3.49445 0.314567 -0.159354 0.457355
254 0.348705 0.668374 -0.000628179 5.39589 -3.42884 0.716549 -0.319019 0.914244
264 0.499361 0.657219 0.048778 5.2291 -3.49501 -0.45809 0.0842581 0.384939
258 0.448573 0.663715 -0.000277215 5.27151 -3.5023 0.273042 0.955512 0.340162
268 0.595435 0.659682 0.0481004 5.2261 -3.50142 0.520541 -0.506832 0.00189179
269 0.701736 0.614104 -0.00189549 0.464761 -3.48936 -0.839195 0.596618 0.804325
272 0.698826 0.657979 0.0493805 0.170209 -3.48277 -0.142356 -0.631377 -0.611525
276 0.800091 0.657056 0.0489734 0.123902 -3.51075 0.119876 0.326433 0.0184178
280 0.902069 0.660199 0.0530565 5.14067 -3.49668 -0.126239 -0.462647 -0.670308
241 1.00055 0.616711 -0.000520627 5.36926 -3.49693 0.310168 0.261084 -0.0252884
278 0.946451 0.665887 -0.00143063 5.29466 -3.4754 0.430705 -0.202923 -0.437369
283 0.0459318 0.711608 0.0475565 5.27938 -3.49254 0.607692 -0.480283 0.452203
288 0.0996316 0.758052 0.0506999 5.11547 -3.49365 -0.0257216 0.0978913 0.102913
287 0.147187 0.7099 0.0499633 0.323329 -3.46106 0.9053 0.371154 0.0366994
289 0.204076 0.718173 0.000146905 5.08314 -3.47933 -1.14132 0.0489676 0.222728
291 0.247954 0.709929 0.0504157 5.28358 -3.45687 0.100362 -0.285163 0.630648
292 0.195885 0.759293 0.0473889 5.35763 -3.48725 0.834123 0.117155 0.933397
295 0.351273 0.707754 0.0491149 4.99702 -3.51479 -0.433986 0.373321 0.431505
296 0.301861 0.761202 0.0513143 5.27779 -3.47385 -0.412739 -0.671784 -0.605197
299 0.447757 0.709682 0.0501372 0.217367 -3.49392 0.252317 -0.651692 -0.46823
300 0.400074 0.759806 0.0513223 0.274164 -3.51042 -0.233896 -0.297764 -0.0239442
297 0.400066 0.717017 0.00148607 5.06962 -3.50926 -0.11326 -0.332268 -0.439955
298 0.444442 0.766141 -0.000621037 5.18203 -3.48611 0.633988 0.313207 0.151301
303 0.545882 0.70612 0.0496143 5.33387 -3.49711 0.00937114 0.680686 -0.438233
304 0.496802 0.760364 0.0529811 5.14303 -3.48417 0.281323 -0.54303 -1.32592
307 0.647891 0.709686 0.0495911 0.281973 -3.50869 0.225543 -0.479841 -0.275883
308 0.598146 0.756598 0.0474072 5.42615 -3.50694 -0.300284 0.390132 0.24521
312 0.704172 0.758776 0.0482786 5.07574 -3.50506 -0.770709 -0.462956 0.0516198
306 0.648194 0.767384 -0.000356181 0.250703 -3.50277 0.198675 -0.403231 -0.182316
311 0.751801 0.706356 0.0518651 5.43438 -3.49884 -0.482759 -0.0249402 -0.411435
315 0.851622 0.707585 0.0500026 5.83709 -3.49317 -0.286099 0.0061109 -0.185543
316 0.798063 0.757846 0.0521815 4.91318 -3.50546 0.592648 -0.464107 -0.858531
313 0.79626 0.713925 -0.000871784 0.553264 -3.48738 0.499406 0.678967 0.494486
317 0.898977 0.71617 -0.00216301 5.5606 -3.5017 -0.162459 0.198968 0.8309
320 0.902768 0.757864 0.0509912 5.66735 -3.50859 -0.47903 0.530996 0.0567156
284 1.00234 0.758314 0.0482628 5.21374 -3.47194 -0.616606 0.253421 0.436134
319 0.949441 0.70941 0.0485434 4.93176 -3.50904 0.0293067 0.153523 0.440533
281 0.996684 0.715287 -0.000496477 5.42005 -3.50424 0.350299 0.0284555 -0.259538
323 0.0508244 0.806704 0.051342 5.1851 -3.50379 -0.0529332 0.664675 -0.243104
325 0.0977138 0.817427 -0.00246994 0.285859 -3.51205 0.0201812 -0.205562 0.213633
327 0.14755 0.809376 0.0479676 5.16772 -3.48795 0.186328 -0.0437407 0.359406
331 0.250152 0.810648 0.0487166 5.28351 -3.49504 -0.0232022 -0.516374 -0.0973845
335 0.35283 0.809149 0.0478047 5.13877 -3.49722 -0.183949 0.516725 0.131461
337 0.39911 0.81765 -0.0040007 0.61872 -3.49328 0.092748 0.0122878 0.469752
339 0.446955 0.807905 0.0482567 5.32102 -3.50411 0.463211 0.538034 0.0827019
343 0.54797 0.812521 0.052236 0.932465 -3.47162 0.150155 -1.13949 -0.865603
345 0.59727 0.818659 -0.00357175 4.88242 -3.46387 0.611671 -0.234917 1.43657
347 0.649237 0.80538 0.0479132 0.375772 -3.47863 -0.0132358 0.664419 0.136497
351 0.752079 0.805792 0.0492991 5.42243 -3.486 -0.391788 0.830127 0.317225
355 0.847368 0.808924 0.0487681 4.94585 -3.4324 0.959788 0.14839 0.396989
353 0.796381 0.814115 -0.00149089 5.11275 -3.49965 0.532218 0.691201 0.0170309
357 0.903716 0.815531 -0.00349654 5.14451 -3.45663 -0.62713 0.791954 1.47986
359 0.954128 0.808451 0.0519294 5.61804 -3.49395 -0.50691 -0.113907 -0.222083
321 1.00168 0.816876 -0.00167404 0.256361 -3.4968 -0.103796 0.208569 0.697016
363 0.0449465 0.907494 0.0501468 5.32298 -3.49032 0.799641 0.631982 0.394363
322 0.0504931 0.870443 -0.000804038 4.71164 -3.49447 -0.578642 -1.03084 0.147075
365 0.0980074 0.917002 -0.00147002 0.178051 -3.49982 0.325034 0.518493 0.679744
328 0.0972114 0.858095 0.0487098 5.45988 -3.51762 0.127102 0.133652 0.343126
367 0.15026 0.907698 0.0468113 5.68083 -3.49801 -0.241749 0.665328 0.992256
332 0.199799 0.860311 0.0479179 5.45904 -3.50947 -0.0340923 -0.448815 0.242997
371 0.248443 0.908602 0.0481599 5.66857 -3.51474 0.41472 0.200669 0.163242
373 0.297966 0.917861 -0.000531729 5.399 -3.49807 -0.052967 -0.163295 -0.314484
336 0.298064 0.861857 0.0489155 5.21537 -3.50155 0.315733 -0.562907 -0.322037
375 0.348343 0.912652 0.0498024 0.494917 -3.49168 0.47377 -0.898018 -0.0535984
334 0.348127 0.871056 -0.000318366 5.00679 -3.50018 0.38322 -0.427316 -0.193682
340 0.402499 0.859199 0.0445231 4.80293 -3.47815 -0.682003 0.592764 1.30862
379 0.449842 0.910935 0.0490973 0.338986 -3.48367 0.695461 0.11888 0.437629
344 0.49989 0.860708 0.0484997 5.27283 -3.49769 0.0567442 -0.0675832 0.414013
383 0.554638 0.911099 0.0504331 5.28985 -3.51033 -0.506039 -0.290605 0.0508021
348 0.596129 0.859121 0.0506761 5.13731 -3.48489 1.0435 -0.415541 -0.254296
387 0.650313 0.90823 0.0495593 0.202308 -3.51293 -0.0383132 -0.0330819 0.00922797
352 0.699135 0.857547 0.0527118 5.60138 -3.49404 0.251922 -0.316894 -0.669417
346 0.650334 0.865927 0.00165762 5.36546 -3.50163 0.0281128 0.164815 0.395009
389 0.699598 0.916314 -0.00215001 5.4506 -3.51421 -0.0483559 0.214492 0.763787
391 0.747928 0.908317 0.0500747 5.73674 -3.50336 0.0760027 -0.178842 -0.0376441
356 0.797824 0.858059 0.0489374 5.28053 -3.5191 0.238392 0.0294735 0.427754
393 0.799467 0.920038 -0.00229669 5.66062 -3.47294 -0.0519139 -0.904405 1.20066
360 0.903842 0.856932 0.0506983 5.05181 -3.49753 -0.738735 -0.0954262 0.187889
395 0.849591 0.906175 0.0511148 5.59713 -3.48972 -0.0215832 0.251365 0.101664
354 0.850223 0.866177 0.00104654 5.16518 -3.48947 -0.0724545 -0.106745 -0.129608
324 0.99928 0.858863 0.0518909 0.154821 -3.488 0.357615 -0.601663 -0.385291
399 0.949788 0.907576 0.0515204 0.156174 -3.50695 0.0108206 0.0352345 0.25813
361 0.995544 0.915569 -4.02158e-05 4.94316 -3.49813 0.187377 0.662898 0.0936056
368 0.0982374 0.957288 0.0523004 0.358359 -3.47785 -0.283717 0.196319 -0.840322
362 0.0475193 0.966583 8.20713e-05 5.53214 -3.4916 0.0632359 0.145777 0.50148
366 0.153255 0.966305 -0.000524204 5.36926 -3.48549 -0.385628 -0.319204 -0.292536
372 0.201233 0.959542 0.0468913 0.286345 -3.48061 -0.122486 -0.10831 0.932701
376 0.301086 0.958917 0.0472322 5.57297 -3.48381 -0.266249 0.71737 0.875498
374 0.347328 0.966905 -0.0019875 0.518866 -3.50862 0.546588 0.347305 0.291433
380 0.400133 0.959644 0.04713 0.477547 -3.47636 0.309735 0.817345 1.03214
384 0.501208 0.95859 0.0495793 0.200533 -3.49824 0.312981 -0.295509 0.285677
388 0.602006 0.960513 0.0501212 0.378656 -3.47998 -0.159497 -0.398801 0.106638
386 0.650003 0.966619 -0.000316642 0.125413 -3.50446 0.173949 0.470741 0.161089
392 0.698531 0.957974 0.0515929 0.170214 -3.50709 -0.145115 0.16399 -0.236539
396 0.798478 0.956348 0.0528408 5.47663 -3.48565 -0.0761595 0.0768478 -0.686757
390 0.748763 0.965537 -0.00118896 5.48246 -3.49043 -0.237757 0.58524 0.855352
400 0.901712 0.957755 0.0542934 5.10188 -3.48119 -0.525817 -0.299542 -0.659844
364 0.996933 0.956624 0.0506094 5.50904 -3.51418 0.233039 0.350054 -0.160665
402 0.0542044 0.0501901 0.101542 5.36072 -3.49281 -0.52296 0.38964 -0.167174
405 0.0976858 -0.000380113 0.0996597 5.06316 -3.50577 0.265223 0.184953 0.131114
404 0.00352764 0.0444286 0.14924 5.34244 -3.50015 -0.215003 -0.329513 0.142739
408 0.0997658 0.0414527 0.150629 4.83849 -3.51617 0.381251 0.49346 0.00200212
406 0.151144 0.049948 0.101215 5.43413 -3.50983 -0.218605 0.190052 -0.340465
412 0.20192 0.0424209 0.148251 0.197703 -3.50088 0.315844 0.239617 0.140842
410 0.248841 0.0510018 0.097408 5.17355 -3.49739 0.785224 0.0113986 0.642848
416 0.303725 0.0433104 0.147099 0.219484 -3.50992 -0.105483 0.100617 0.356007
414 0.358377 0.0516167 0.102381 5.06435 -3.48033 -0.624756 -0.408736 -0.75743
420 0.406825 0.0415643 0.151532 5.00468 -3.49889 -0.323363 0.326407 -0.288372
418 0.453611 0.0515755 0.0991367 0.265356 -3.49576 -0.310356 -0.134946 0.197962
417 0.404857 -0.000854032 0.103723 5.09731 -3.4739 0.0732177 0.218557 -1.46402
424 0.500317 0.0425309 0.151166 0.258229 -3.49876 0.419772 -0.0535414 -0.217365
421 0.500146 0.000769287 0.100378 5.05 -3.52084 0.391289 -0.121209 0.159674
422 0.553855 0.0484531 0.100842 0.592003 -3.49577 -0.581442 0.256581 0.0727742
425 0.606974 -0.000265434 0.0996325 5.30108 -3.42953 -2.11309 -0.214317 0.70543
428 0.601691 0.0385034 0.149921 5.12035 -3.49917 -0.247084 1.05797 0.661079
426 0.651551 0.0516965 0.103267 0.438906 -3.47496 -0.287447 -0.0500858 -0.916685
432 0.700444 0.0436795 0.152308 0.621389 -3.51142 -0.435295 -0.578196 0.0815352
430 0.747269 0.0510784 0.104073 5.37545 -3.48844 -0.244643 -0.349111 -0.84899
433 0.795482 -0.000989824 0.0981561 0.641194 -3.49605 0.224646 0.18129 0.930271
436 0.794366 0.0389193 0.151316 4.80101 -3.51351 0.441418 0.290892 -0.108132
434 0.844984 0.0492962 0.10176 4.97325 -3.48896 0.67145 -0.525015 0.0552115
440 0.902299 0.0415821 0.151322 0.383684 -3.48243 -0.562803 -0.241496 -0.670075
438 0.949038 0.0487789 0.101278 0.227916 -3.48267 0.383126 0.223926 0.469215
437 0.898939 -0.00404703 0.102019 5.06282 -3.47618 -0.272444 0.932637 0.363706
442 0.0493151 0.147446 0.0999681 4.71556 -3.49415 0.188954 0.490013 0.0438259
443 0.0549936 0.0951688 0.151491 4.84735 -3.50419 -0.283591 -0.601593 -0.221874
444 0.000684221 0.14006 0.151624 5.40686 -3.50899 -0.0915992 0.198439 -0.115779
445 0.10258 0.103008 0.0999207 5.03324 -3.49675 -0.0534209 -0.639921 0.0770569
446 0.152015 0.150869 0.0998105 0.137768 -3.50341 0.0823055 -0.099278 0.170835
447 0.15038 0.0927755 0.151927 5.18706 -3.50408 0.296967 -0.0523397 -0.31931
448 0.101726 0.144262 0.152109 0.35799 -3.50002 0.428852 -0.532814 -0.400746
449 0.20218 0.0997016 0.101348 0.31619 -3.47875 0.00768553 0.137851 -0.424536
452 0.204824 0.142181 0.147343 5.39467 -3.50162 -0.373098 0.386281 0.750553
450 0.253567 0.147708 0.0996243 5.19438 -3.49769 -0.306116 0.51259 -0.708664
451 0.256994 0.0940982 0.149078 5.36986 -3.50392 -0.541008 -0.602457 -0.0909753
453 0.303356 0.101461 0.0966196 5.5567 -3.49578 0.343882 0.0421819 0.989581
456 0.302426 0.143785 0.150315 5.52384 -3.50941 0.661257 -0.438172 -0.753001
454 0.352054 0.152316 0.10007 4.99183 -3.50777 0.263185 -0.300605 -0.0563624
455 0.352737 0.0927064 0.148175 5.10728 -3.48968 -0.0268271 0.246152 0.165256
460 0.405395 0.141354 0.150048 4.75634 -3.5093 -0.551267 0.260895 -0.095414
457 0.402868 0.100979 0.0997865 0.177262 -3.49979 0.149914 0.328898 -0.36498
458 0.450901 0.150405 0.101142 5.3549 -3.51194 0.26433 0.113642 -0.631919
459 0.454971 0.0929658 0.148433 4.94013 -3.50988 -0.449704 -0.0534672 0.116826
461 0.502324 0.104167 0.0995611 5.08809 -3.49172 -0.0448412 -0.465621 0.206224
464 0.49955 0.14692 0.149129 4.81197 -3.49467 0.628744 -0.499723 -0.161296
463 0.551272 0.0950428 0.148988 0.376845 -3.4718 -0.451973 -0.813298 0.292373
465 0.599483 0.100794 0.101098 0.175626 -3.50406 0.348632 -0.00529967 -0.535626
466 0.650567 0.151967 0.0998455 0.176042 -3.48819 -0.324222 -0.333787 -0.17158
469 0.698678 0.102268 0.102806 5.52243 -3.52936 0.0359337 -0.209569 -0.264799
472 0.69772 0.141805 0.152048 5.58487 -3.49447 0.324502 -0.0948291 0.160406
471 0.748948 0.0914608 0.151337 5.71411 -3.50504 0.0402901 0.398976 0.454026
470 0.7475 0.151253 0.102383 5.45269 -3.49423 0.104833 0.35923 0.0920807
473 0.798862 0.0991183 0.101523 5.60836 -3.51514 -0.183073 0.320817 0.351997
476 0.798548 0.141515 0.151144 5.7543 -3.49029 -0.378248 -0.144141 0.00737249
474 0.851618 0.145496 0.102177 5.5527 -3.48472 -0.764717 0.763069 -0.0959859
475 0.84828 0.0885786 0.151064 0.250622 -3.49262 -0.303363 0.288109 -0.0783729
477 0.900614 0.097396 0.102155 0.0895804 -3.49472 -0.0489453 0.0440366 -0.0197624
480 0.898347 0.138568 0.150922 5.05679 -3.49707 0.200479 0.191966 -0.10824
441 1.00132 0.0998131 0.101476 5.48625 -3.50548 -0.0779224 -0.456222 0.0103075
478 0.950769 0.146372 0.0999402 0.421033 -3.49915 -0.531581 0.492284 0.249528
479 0.951327 0.0923231 0.152035 0.22394 -3.52423 -0.122628 -0.260571 -0.257644
483 0.0502586 0.18836 0.147749 0.594184 -3.48707 -0.0626285 0.773793 0.37184
485 0.10194 0.199856 0.101343 0.211624 -3.50637 -0.374268 -0.418789 -0.312703
487 0.150324 0.193654 0.148022 4.87261 -3.49985 0.405186 -0.0719379 1.05633
489 0.200593 0.200083 0.100488 0.166454 -3.50117 0.240688 -0.229766 -0.700227
491 0.252574 0.193728 0.146436 0.524984 -3.49767 -0.0204412 -0.215022 0.640966
493 0.30469 0.200061 0.0991142 0.300498 -3.50413 -0.540455 0.13407 0.185551
495 0.356489 0.193273 0.150959 5.39879 -3.48757 -0.574358 -0.241155 -0.51468
497 0.405154 0.200367 0.100827 5.30592 -3.49888 -0.118095 0.311627 -0.242156
499 0.450819 0.193294 0.150239 5.33437 -3.49414 0.371561 0.488048 0.148094
501 0.500699 0.201504 0.0981352 5.07876 -3.48849 -0.463463 0.945174 0.929783
462 0.553225 0.153318 0.0981997 5.08363 -3.48865 -0.291345 0.182946 0.466038
503 0.547951 0.197891 0.147698 4.89957 -3.44304 1.97378 -1.66997 0.514693
505 0.600426 0.202858 0.096419 5.01953 -3.5015 0.0883549 -0.43757 0.816091
507 0.649711 0.189172 0.148415 4.95492 -3.48379 -0.0845429 0.771103 0.303032
509 0.696746 0.204095 0.101752 0.657096 -3.49241 0.769854 -1.08451 -0.487496
511 0.749416 0.194091 0.154388 0.721922 -3.48793 -0.437859 -0.938035 -0.869917
513 0.79845 0.200157 0.104804 5.2704 -3.46863 0.228527 -0.409607 -1.07713
515 0.848674 0.188813 0.150617 5.16315 -3.51644 0.0385036 0.493079 0.597636
481 0.99697 0.198302 0.0972606 5.1337 -3.47185 0.308687 0.375792 0.774124
517 0.8943 0.199958 0.101796 5.62359 -3.45102 0.762543 -1.25319 0.177265
519 0.950411 0.189728 0.149529 0.346338 -3.51118 -0.480171 0.122568 0.0740878
482 0.0518276 0.247443 0.102611 5.36304 -3.48979 -0.405094 -0.144812 -0.656428