ITEM: TIMESTEP
2000
ITEM: NUMBER OF ATOMS
4000
ITEM: BOX BOUNDS pp pp pp
1.7165899780352918e+00 3.4383410021964636e+01
-7.2688970374262496e-01 3.6826889703742552e+01
-7.2575772973302932e-01 3.6825757729732942e+01
ITEM: ATOMS id xs ys zs c_csym c_peratom fx fy fz
4 0.99522 0.0502982 0.0485562 0.281109 -3.46927 0.02706 0.611121 1.63968
1 0.997377 1.00301 0.998946 0.329858 -3.47782 -0.254548 -1.33624 -0.745225
3 0.0469164 0.00144348 0.0467041 0.532258 -3.50935 0.26222 -0.416145 0.981356
8 0.0980255 0.0513134 0.0521781 0.314909 -3.52794 0.426836 -0.0844999 -0.492909
5 0.10015 0.000273138 0.00271389 0.205375 -3.49486 0.200478 -0.0737425 -0.679638
7 0.14626 -0.000134219 0.0506733 0.266975 -3.4923 0.241507 0.271618 0.0620407
6 0.15436 0.0491819 0.00192219 0.303093 -3.49385 -0.780051 -0.511467 0.107944
12 0.198464 0.0455971 0.0500211 0.895094 -3.45813 0.961927 1.52596 1.45185
11 0.251246 0.994233 0.0518932 0.630954 -3.48489 -0.399825 1.78309 0.139933
16 0.302528 0.0480812 0.0532231 0.312887 -3.45535 -0.628539 0.113599 0.0864049
15 0.348699 0.996079 0.0532415 0.420556 -3.49504 0.438861 1.57118 0.232867
20 0.399608 0.0495924 0.0515514 0.208265 -3.4957 -0.0544141 -0.74052 -0.0887393
19 0.448761 0.998139 0.0489931 0.160081 -3.51878 0.0382882 0.210644 -0.303947
24 0.500824 0.0503443 0.0496648 0.144885 -3.5149 -0.479332 0.552845 -0.206319
28 0.600472 0.0539563 0.0511688 0.327562 -3.49934 0.628048 -0.714572 -0.505791
25 0.603615 0.0049559 0.998639 0.114721 -3.48739 0.232583 0.284148 0.910537
32 0.704016 0.0538672 0.0495081 0.343834 -3.50021 -0.0658401 0.310302 0.0250023
26 0.652887 0.0545197 -8.38893e-05 0.1681 -3.50739 0.15547 -0.193087 0.191547
29 0.711247 0.00440197 0.00240974 1.97972 -3.39196 -1.21805 -0.167868 0.0729144
36 0.803137 0.0502193 0.0520444 0.632367 -3.48596 -0.557689 0.472192 -0.0151919
31 0.75485 0.00141309 0.053616 0.860222 -3.47502 -1.01488 0.806915 -0.418526
30 0.749859 0.0560509 -0.000697018 0.633693 -3.44822 0.259662 0.327342 1.07643
35 0.849939 1.00149 0.0479988 0.253338 -3.48354 -0.0745185 -0.104613 1.15622
40 0.902221 0.0527422 0.0460918 0.834472 -3.46279 -0.443639 0.0633398 0.135355
37 0.898913 0.000508493 1.00027 0.276703 -3.5063 0.151252 0.244716 -0.55164
38 0.949377 0.0477683 0.99764 0.873302 -3.46725 -0.0735526 0.668435 0.246927
42 0.0523042 0.150803 0.00168409 0.298425 -3.51503 -0.202826 -0.118665 -0.203461
43 0.0467178 0.0993383 0.0500728 0.3525 -3.50026 0.166662 0.41878 -0.0545691
44 0.994782 0.155909 0.0499618 0.680387 -3.45498 1.15377 -0.905207 -0.345018
45 0.104019 0.0997986 0.00268923 0.241205 -3.51207 -0.601399 0.0615064 -0.30898
47 0.153214 0.0995982 0.0517787 0.350242 -3.49474 -0.805844 0.282311 0.0385386
48 0.100315 0.151142 0.053479 0.416897 -3.51202 0.379209 0.143376 -0.345244
49 0.202527 0.101576 0.0055138 0.369619 -3.48134 0.39345 -1.26893 -0.450592
52 0.203249 0.148779 0.0540443 0.217688 -3.48465 -0.523329 0.0280413 0.74763
51 0.250651 0.0991664 0.0569571 0.391311 -3.47723 0.114013 -0.975402 -0.99544
50 0.24753 0.1517 0.00654469 0.736838 -3.45786 0.649769 -0.795061 -1.49411
56 0.297775 0.147054 0.0564924 0.380663 -3.47683 0.0815653 -0.130121 -0.897662
54 0.347317 0.148495 0.00122966 0.190795 -3.48805 -0.00179608 0.368834 0.0547082
55 0.347865 0.0929365 0.0545232 1.07949 -3.43482 0.650499 2.0982 0.47827
60 0.396246 0.150022 0.0505104 0.28627 -3.47407 -0.251044 -1.22688 0.434566
58 0.450491 0.152389 1.00102 0.508061 -3.49841 -0.510305 -0.988997 0.145717
59 0.449288 0.100306 0.0514998 0.156428 -3.51816 -0.0643487 0.384329 -0.675651
64 0.498388 0.153276 0.0512383 0.490104 -3.44683 -1.10401 -1.10178 0.700706
61 0.497848 0.10065 -0.00169523 0.364773 -3.48077 0.0848601 -0.208081 0.373073
63 0.548991 0.104689 0.0481687 0.626543 -3.51245 -0.219878 -0.765818 0.474068
68 0.600307 0.151356 0.0495334 0.16452 -3.5135 -0.174085 0.0383466 -0.119753
62 0.545696 0.149718 6.90516e-05 0.365687 -3.50189 0.719803 0.988515 0.406246
65 0.603301 0.101854 0.998766 0.379078 -3.5139 -0.542093 0.0663174 0.406291
67 0.650245 0.102816 0.0493118 0.0926448 -3.52247 0.327539 0.624954 0.185722
72 0.699085 0.154055 0.0479983 0.45775 -3.47478 -0.220049 -0.0194281 0.97464
66 0.649669 0.153588 0.999105 0.0932506 -3.51349 -0.0895268 -0.288617 0.490178
69 0.699912 0.105803 1.00029 0.210168 -3.50225 0.26516 -0.433266 0.578314
71 0.75534 0.103374 0.052922 0.849706 -3.5069 -0.388593 -0.141493 -0.402445
73 0.798809 0.106592 1.00016 0.414154 -3.48698 0.662306 -0.881638 -0.311335
76 0.80191 0.154759 0.0503645 0.239501 -3.48639 0.406581 0.186727 -0.0618881
75 0.850242 0.103998 0.0490282 0.320728 -3.51795 -0.243443 -0.670394 0.253135
77 0.897099 0.100864 -9.41751e-05 0.293388 -3.48741 0.45966 0.924345 0.554097
80 0.899131 0.155765 0.0476434 0.454377 -3.48208 -0.308725 -1.4329 0.652416
74 0.848163 0.155389 0.999893 0.274806 -3.4844 0.0395532 -1.14836 -0.944074
41 0.996849 0.102326 -0.000858132 0.265624 -3.47274 0.565553 0.017119 0.913812
79 0.947952 0.1034 0.0508397 0.250056 -3.48596 -0.159391 -0.312075 -0.291015
83 0.0516155 0.203811 0.0466415 0.458957 -3.51621 -0.345055 -0.278735 0.552513
87 0.156331 0.200997 0.0519391 0.347536 -3.49414 -0.50716 -0.0875451 -0.193112
91 0.250982 0.200414 0.0547687 0.269555 -3.50473 -0.290265 -0.0128988 -0.293908
92 0.203089 0.250525 0.0484512 0.342931 -3.47869 0.66095 0.620821 0.882215
95 0.34906 0.196988 0.0522878 0.280371 -3.47253 -0.364508 0.626256 0.0809216
93 0.299959 0.199801 0.00221782 0.15011 -3.50991 -0.105398 0.395183 0.381193
99 0.444177 0.201524 0.0535783 0.587223 -3.48989 0.294214 -1.07226 -0.190409
103 0.546963 0.199679 0.0519601 0.1767 -3.47991 0.29336 0.431073 -1.78598
107 0.648936 0.201928 0.0497568 0.0500124 -3.5115 -0.148943 0.375273 0.0189733
106 0.649532 0.251142 -0.00271278 0.279049 -3.50746 -0.645829 0.347034 0.889718
112 0.697526 0.25085 0.0488743 0.444367 -3.48695 0.938641 -0.567826 1.02686
111 0.753185 0.203744 0.0495512 0.231656 -3.51959 -0.100406 0.181881 0.316764
116 0.804528 0.253215 0.0487641 0.35338 -3.42638 -1.04811 1.22308 0.533536
115 0.852475 0.201854 0.0487498 0.392006 -3.47397 0.0266015 0.915657 0.328069
120 0.895623 0.255807 0.043298 1.23013 -3.3943 0.912029 -1.02728 1.40153
84 -0.000162168 0.256103 0.0470499 0.338756 -3.42958 0.129689 -1.11405 -0.478735
119 0.945647 0.206603 0.0471672 0.469153 -3.49509 0.618499 -0.624925 -0.196678
81 0.000581879 0.201794 0.995843 0.608482 -3.48621 -0.846125 0.43575 1.24366
123 0.0533158 0.303189 0.0510728 0.358238 -3.51918 -0.380967 -0.123063 -0.49503
88 0.105214 0.252952 0.0494238 0.179478 -3.52311 0.0444481 -0.0183769 0.186974
125 0.10597 0.301166 1.0008 0.367604 -3.50612 -0.446738 0.301275 -0.584972
127 0.15538 0.30436 0.0473427 0.400733 -3.47754 -0.0858522 -0.446131 0.703904
129 0.206694 0.302873 1.00094 0.275106 -3.50831 -0.589361 0.335736 -0.994317
131 0.256309 0.302532 0.0479126 0.49816 -3.47619 -0.772066 0.388196 0.763765
90 0.254626 0.253839 0.998892 0.401261 -3.48623 -0.911809 -0.897957 0.103645
96 0.299519 0.251713 0.0504142 0.279945 -3.492 0.238917 -0.726729 0.0792119
135 0.351968 0.299302 0.052898 0.555746 -3.45049 -1.19971 -0.668268 -1.2539
100 0.395757 0.249506 0.0540984 0.236382 -3.48256 0.0565964 -0.283191 -2.06857
139 0.442663 0.298845 0.0522901 0.253356 -3.44162 0.592536 -0.067052 -0.529935
104 0.493217 0.248766 0.0508744 0.200697 -3.51862 0.161557 0.143357 -0.295128
108 0.597947 0.249452 0.0496793 0.131592 -3.50138 0.380956 1.15107 -0.48303
143 0.545637 0.299091 0.0484466 0.239682 -3.51527 -0.0978272 0.416458 0.645543
147 0.652277 0.299875 0.0497851 0.503477 -3.48525 -1.16084 -0.197297 -0.35468
149 0.700781 0.298737 1.00054 0.535011 -3.48991 -0.169594 1.17503 -0.808533
151 0.752246 0.303042 0.0506265 0.345612 -3.50174 0.368342 -0.628333 -0.358835
153 0.801295 0.302612 0.999093 0.163994 -3.50622 -0.402056 -0.412562 -0.973246
155 0.847569 0.304654 0.0490203 0.499242 -3.46767 0.188007 0.418318 -1.14092
157 0.899197 0.301041 0.999853 0.593529 -3.41532 -0.490838 1.76825 -1.46683
159 0.948315 0.304248 0.0468348 0.178662 -3.50198 0.701268 0.0432533 0.869743
163 0.0518607 0.402404 0.0487812 0.117747 -3.51543 -0.258083 -0.374539 0.581483
128 0.102888 0.354022 0.0469118 0.502615 -3.4969 -0.149956 -0.434687 1.16245
167 0.153569 0.403305 0.0514024 0.19528 -3.52542 -0.048779 0.102955 -0.00429451
132 0.204226 0.354476 0.0488281 0.204252 -3.51161 0.0890987 -0.234572 0.0417207
171 0.255434 0.405192 0.0472893 0.523474 -3.52661 0.153992 -0.263958 0.143161
130 0.25213 0.352623 0.998929 0.376855 -3.49941 0.860996 -0.0514981 0.610387
136 0.303456 0.352674 0.0507911 0.450351 -3.47268 0.054752 -0.908238 -0.937023
175 0.351915 0.399418 0.0502863 0.29505 -3.41634 -1.15135 0.257592 0.214008
140 0.394472 0.351708 0.0549374 0.932972 -3.44283 0.444391 -0.748353 -0.442716
179 0.441139 0.401117 0.0511791 0.621137 -3.4806 0.807135 -0.26502 -0.131158
138 0.439319 0.35201 0.00122334 0.59607 -3.47886 0.485145 -0.0323329 0.384678
144 0.491165 0.350555 0.0497062 0.42634 -3.50604 0.377781 -0.0955229 0.243608
183 0.543216 0.400722 0.0515218 0.319045 -3.49901 0.223902 -0.289347 0.745186
148 0.593078 0.350367 0.0520722 0.520126 -3.502 0.725376 0.0201585 -0.187692
146 0.649139 0.348891 0.000559553 0.233361 -3.47983 -0.0686277 0.893077 -0.274323
187 0.648774 0.397028 0.0526841 0.28319 -3.50074 -0.253717 0.00465636 -0.395396
152 0.699884 0.351288 0.0485234 0.338631 -3.48875 0.142004 -0.50965 1.68954
191 0.750582 0.39791 0.0504925 0.521885 -3.47738 -0.320994 0.62814 -0.271358
150 0.745651 0.352994 0.997729 0.592465 -3.48054 0.625509 -1.312 0.0973067
156 0.800546 0.352213 0.0464186 0.344561 -3.45453 -0.536055 0.844352 1.10878
160 0.901469 0.353026 0.0492978 0.309425 -3.47349 -0.821265 -0.291875 -1.12316
195 0.849083 0.402043 0.0461781 0.269822 -3.51378 -0.193846 0.150794 0.217276
154 0.849297 0.353147 0.996172 0.27552 -3.50482 0.504098 -0.418392 0.979255
124 0.998864 0.352502 0.0485056 0.240598 -3.50605 0.736118 -0.1697 -0.0805883
158 0.948168 0.35234 1.00025 0.319145 -3.50439 0.801532 0.116807 -0.818864
199 0.950443 0.400939 0.0497137 0.0540824 -3.50353 -0.00643609 0.570115 0.322526
161 0.00093986 0.402341 0.999901 0.0820441 -3.48549 -0.398684 -1.01294 -0.545766
203 0.0521266 0.498357 0.0518919 0.61898 -3.45181 -0.334071 0.760305 -0.439055
164 0.00224177 0.450814 0.0497279 0.0910993 -3.48446 -0.0583021 0.13175 0.00619342
168 0.101659 0.452947 0.0529922 0.290413 -3.47231 0.240719 -0.111567 -1.07493
205 0.101639 0.501712 -0.00144071 0.0829165 -3.5026 0.0922825 -0.0777642 0.89263
207 0.154224 0.501678 0.053737 0.716113 -3.47194 -0.229168 -0.24048 -0.938161
172 0.206271 0.453257 0.0497833 0.200703 -3.4988 -0.349688 0.328244 -0.692247
176 0.304429 0.453473 0.0501811 0.157789 -3.45194 0.406584 -0.299704 -0.15704
215 0.356237 0.505205 0.0503715 5.11562 -3.46779 -0.641845 -0.921592 0.0672117
174 0.35405 0.454904 1.00228 0.526051 -3.44574 -0.731331 0.109191 -0.392383
180 0.393298 0.44902 0.0510085 1.29754 -3.40238 1.51861 0.00151843 0.553248
217 0.399992 0.504579 0.00162929 0.517797 -3.46623 0.348463 0.362427 -0.908554
184 0.497616 0.452141 0.0523839 0.243452 -3.49959 -0.468151 -0.774069 -0.227193
188 0.597508 0.44336 0.0538957 0.832873 -3.49036 0.120071 1.20401 -0.415345
227 0.648004 0.497253 0.0517042 0.245985 -3.46149 0.0735078 -0.346063 -0.300199
192 0.698721 0.450983 0.050775 0.432345 -3.48014 0.480007 -1.37294 -0.409806
196 0.795761 0.4496 0.049122 0.222514 -3.50876 -0.0747446 0.428867 -0.216319
231 0.744854 0.500799 0.047807 0.290936 -3.48196 0.115692 -0.0310755 -0.0402217
190 0.745222 0.451283 0.995902 0.57206 -3.48122 0.0121722 0.205484 0.57922
233 0.79689 0.503024 -0.00216448 0.207093 -3.50637 -0.158312 -0.600261 0.557609
194 0.846974 0.450812 -0.00152987 0.110896 -3.51661 0.178717 0.217361 0.280245
200 0.899949 0.449506 0.0504128 0.132968 -3.51399 -0.170256 0.499184 0.0724031
235 0.846901 0.502033 0.0485766 0.149991 -3.51442 0.2858 -0.147557 -0.255096
198 0.951061 0.450373 1.00206 0.296166 -3.51382 -0.130001 0.634861 -0.721173
239 0.952877 0.499367 0.0498613 0.349895 -3.48609 -0.762657 0.276271 0.0923845
204 5.27152e-06 0.550405 0.0500262 0.271578 -3.50692 0.0737015 -0.189052 -0.883087
202 0.0518728 0.551095 0.995119 0.50761 -3.45784 -0.11161 0.0448297 0.619631
208 0.105466 0.549431 0.048621 0.438511 -3.51267 -0.779291 0.0878143 -0.264005
211 0.253248 0.504206 0.0464331 0.447184 -3.49635 0.830453 -0.184562 0.215905
212 0.20306 0.550016 0.0474254 0.365982 -3.48316 0.501801 0.0357425 0.0910752
210 0.258363 0.554705 0.995219 0.707883 -3.49887 -0.498513 0.267803 -0.439848
216 0.306253 0.553413 0.0461022 0.333059 -3.47663 0.101538 -0.0752241 0.138549
220 0.400125 0.555369 0.0492343 0.484978 -3.4826 0.215083 0.114682 -0.62364
219 0.446636 0.502053 0.0520837 0.360855 -3.49718 -0.170717 0.0541207 -0.564654
224 0.499837 0.550441 0.050377 0.136959 -3.51053 0.698903 -0.639954 0.0195908
223 0.54943 0.49745 0.0524264 0.146686 -3.49425 -0.286295 -0.674499 -0.00971168
228 0.60107 0.548563 0.0499141 0.329931 -3.46622 -0.264334 -0.483235 0.826171
225 0.601047 0.496971 0.00341523 0.401288 -3.47752 -0.759858 -0.707926 0.233435
226 0.645824 0.550461 1.00108 0.133752 -3.47414 -0.467983 -0.452493 -0.0463768
232 0.693941 0.549269 0.0515573 0.157783 -3.49144 -0.0753153 -0.147158 -0.60231
236 0.798129 0.550787 0.0479247 0.212876 -3.51992 -0.271438 0.0874716 -0.100743
237 0.898905 0.501729 1.00029 0.178902 -3.51944 0.133592 -0.328445 0.18283
240 0.898966 0.553117 0.0461129 0.470944 -3.46339 -0.235956 -1.03541 -0.23128
238 0.948376 0.55161 0.996058 0.307538 -3.47483 0.0686102 -0.448011 0.291023
243 0.0519906 0.597906 0.0483734 0.192535 -3.51807 -0.156433 0.336465 -0.445638
244 -0.00367265 0.648497 0.0482146 0.50974 -3.45562 1.77596 0.519477 -0.166548
247 0.155406 0.597339 0.0497141 0.404441 -3.44918 -0.36117 0.369841 0.0712534
248 0.102425 0.648432 0.048659 0.115963 -3.5262 0.186547 -0.187502 0.121644
252 0.201601 0.649966 0.0503021 0.150922 -3.49136 -0.049939 0.479836 -0.345573
251 0.25739 0.602027 0.0475153 0.527225 -3.48323 -0.656083 0.51079 -0.630693
256 0.300662 0.654556 0.0477997 0.116547 -3.50651 0.174483 -0.0237699 0.0166265
255 0.350561 0.604199 0.0451207 0.419151 -3.48175 0.467769 -0.169537 0.330948
253 0.303359 0.605847 0.994838 0.178965 -3.47152 0.0247711 0.222078 0.496262
254 0.352748 0.654248 0.997936 0.0618254 -3.52544 0.0867412 0.460618 0.130608
260 0.405482 0.652713 0.0481483 0.309871 -3.51775 -0.315634 0.148372 0.526086
259 0.454519 0.602016 0.048877 0.148618 -3.47165 -0.56852 0.0984422 -1.60447
258 0.455158 0.652994 0.997011 0.262788 -3.48169 -0.0172837 -0.893308 1.22507
264 0.502891 0.648012 0.0487407 0.489372 -3.49884 0.777164 1.35964 0.439174
263 0.552451 0.598815 0.0490502 0.201103 -3.51146 -0.210613 -0.631046 0.936994
265 0.600529 0.599115 0.000709792 0.128937 -3.49807 -0.0178399 -0.0346786 -0.333992
268 0.600563 0.645928 0.0514261 0.437997 -3.50037 0.279764 0.935784 -0.684983
266 0.647426 0.652488 0.998159 0.464305 -3.4872 -0.330445 -0.930061 -0.0501909
267 0.647223 0.597689 0.0524385 0.248412 -3.49338 0.0627903 0.290314 0.169964
269 0.692767 0.599686 0.998491 0.226962 -3.48373 0.126874 -0.39718 0.241861
272 0.696981 0.647746 0.0492743 0.149246 -3.50123 -0.228326 0.0792468 0.25941
271 0.744481 0.598596 0.0477032 0.10702 -3.51874 -0.351994 -0.0310924 -0.386322
276 0.795439 0.646399 0.0472588 0.250191 -3.49098 -0.309844 0.842924 -0.0891005
270 0.742675 0.649602 -0.00245609 0.221327 -3.4997 0.0349526 -0.449696 0.885629
273 0.793102 0.600329 0.998507 0.198438 -3.5163 0.32373 -0.435647 -0.141764
275 0.848748 0.598178 0.0476614 0.284806 -3.50126 -0.308211 0.540241 -0.24232
277 0.899001 0.602135 0.99423 0.542957 -3.4892 -0.387498 -0.294701 0.976338
280 0.895644 0.651859 0.0463114 0.525694 -3.49754 0.699795 -0.696817 0.563123
274 0.842277 0.648788 0.997786 0.481115 -3.5044 0.754408 0.126277 -0.111638
279 0.946785 0.598598 0.0449997 0.39024 -3.47979 0.363634 0.753041 1.12376
283 0.050097 0.699119 0.0485979 0.10194 -3.51758 -0.0481284 0.119427 0.0173717
284 -0.000269149 0.751946 0.0509479 0.520383 -3.51221 0.0879455 -0.607458 -0.84952
287 0.14935 0.69928 0.0517977 0.388584 -3.49968 0.183306 0.363475 -0.971511
288 0.0994346 0.751473 0.0523085 0.367473 -3.49371 0.816019 -0.730283 -1.08269
291 0.251088 0.70473 0.0487609 0.160015 -3.49428 -0.366134 -0.813819 -0.358467
295 0.35024 0.703426 0.0496565 0.25425 -3.51139 0.585599 -0.0120816 -0.0241712
294 0.354066 0.753389 0.0014917 0.202706 -3.47389 -0.620336 -0.764766 -0.526971
296 0.302031 0.753534 0.0490706 0.170624 -3.5086 -0.271323 0.390065 0.448063
299 0.454142 0.702979 0.0495648 0.287842 -3.42365 0.797762 -1.45524 -0.65098
303 0.556981 0.701967 0.0521181 0.53062 -3.45145 -0.558025 -0.658711 -0.687643
305 0.602712 0.701206 0.00415704 0.45998 -3.44711 -0.00419006 -0.374448 -1.12637
308 0.603403 0.750723 0.0516176 0.247939 -3.43003 0.409843 1.29937 0.988524
307 0.650206 0.698165 0.049743 0.224466 -3.49691 0.177571 0.338792 0.958468
306 0.645717 0.753669 0.999563 0.42373 -3.4418 0.577075 -0.0902736 -0.191145
309 0.692253 0.702664 0.998467 0.485086 -3.44529 0.41939 -0.652417 -0.085988
311 0.745751 0.698734 0.0478975 0.172352 -3.4921 -0.363401 0.832609 0.106479
313 0.7943 0.700245 -0.00231806 0.149976 -3.49442 -0.448307 -0.199583 0.85113
315 0.844309 0.699773 0.0474199 0.294803 -3.49646 0.282505 -0.595159 0.277665
320 0.897841 0.74838 0.0443167 0.573623 -3.50992 -0.222611 0.21387 0.668488
317 0.902223 0.698257 0.995234 0.87344 -3.48494 -0.948698 0.302608 0.674843
319 0.952418 0.701159 0.0464732 0.465482 -3.51343 -0.696158 -0.732722 0.242204
323 0.0510452 0.799736 0.0482318 0.19262 -3.50334 -0.559371 0.185758 1.03575
321 -0.000118951 0.800222 0.996292 0.387698 -3.50487 0.151037 0.0123555 0.82382
327 0.151263 0.804344 0.050002 0.343563 -3.49003 -0.419564 -1.36388 -0.56136
292 0.202039 0.753823 0.0485375 0.3299 -3.49163 -0.132675 -0.0363087 0.39826
331 0.247297 0.801555 0.0491646 0.282479 -3.47838 0.619624 0.841113 1.14914
333 0.299453 0.80332 -0.00137983 0.34449 -3.48657 0.224931 -0.782274 0.268331
335 0.355586 0.800178 0.0515172 0.416367 -3.49913 -0.811865 0.613481 -0.423385
300 0.405185 0.75115 0.0526518 0.387239 -3.47023 0.0268957 0.107871 -1.05801
339 0.45445 0.801382 0.0511476 0.149679 -3.51245 0.464611 0.44579 -0.717053
337 0.402951 0.802413 -0.000639168 0.188471 -3.48728 0.4676 -0.468274 1.01333
304 0.504887 0.751663 0.0490614 0.271214 -3.48563 0.188704 -0.336046 0.699069
343 0.556048 0.803756 0.0492762 0.349412 -3.48901 -0.116002 -0.471331 0.720608
312 0.694278 0.750192 0.0496117 0.276128 -3.50277 -0.0128188 0.182176 0.702368
347 0.65197 0.80205 0.0471147 0.736769 -3.4751 -1.20034 0.142495 1.13501
349 0.696942 0.803156 1.00022 0.18266 -3.46438 0.140884 0.591459 -0.51221
351 0.741376 0.800441 0.051894 0.589126 -3.50746 0.611831 0.38709 -0.382028
316 0.795569 0.749985 0.0484954 0.162534 -3.48292 -1.08197 0.389023 0.291093
355 0.841072 0.797615 0.0500548 0.846234 -3.47666 1.5526 0.559969 -0.690181
359 0.948501 0.798989 0.0491256 0.202466 -3.497 -0.0855742 0.0764444 -1.007
322 0.0530629 0.850141 0.999586 0.392111 -3.51026 -0.294892 0.202652 -0.00458936
324 0.997859 0.846562 0.0475803 0.486339 -3.50737 0.726368 0.557702 0.909925
363 0.0496891 0.900568 0.0486775 0.251388 -3.47402 -0.407825 -0.495841 1.03614
328 0.0992386 0.850806 0.0500986 0.115172 -3.49368 -0.234396 -0.351616 0.105351
365 0.101239 0.903251 -3.27163e-05 0.37456 -3.44711 -0.215714 -0.629451 -0.463039
367 0.145583 0.899405 0.0483391 0.456094 -3.49616 0.384912 -0.313132 0.880716
326 0.149943 0.851119 1 0.201314 -3.4755 -0.00283687 1.05454 -0.0144718
332 0.200362 0.850384 0.0489681 0.286139 -3.49975 -0.424143 0.999719 0.627007
371 0.248483 0.900917 0.0522023 0.225119 -3.51611 0.301839 -0.512977 -0.33054
330 0.249606 0.852114 1.0004 0.113706 -3.51127 -0.592205 0.199962 -0.437912
336 0.298614 0.849052 0.0499278 0.338253 -3.51254 0.371103 0.688927 0.432891
375 0.34669 0.90121 0.048683 0.998115 -3.47411 1.37714 -1.0313 0.209625
373 0.297568 0.898905 0.999709 0.339957 -3.50946 0.560048 -0.0814232 0.224887
340 0.401886 0.84897 0.0513869 0.249459 -3.49483 0.47045 1.05361 -0.352861
377 0.40143 0.899257 0.998076 0.279267 -3.49868 -0.380848 0.115119 0.453709
379 0.452298 0.900013 0.0482418 0.166897 -3.49654 0.165617 -0.911292 0.600029
344 0.508015 0.852769 0.0491606 0.448408 -3.4947 -0.685817 0.104321 -0.701435
383 0.550423 0.903429 0.0476496 0.396283 -3.47953 1.4749 0.439417 0.030657
348 0.602646 0.854955 0.0466006 0.38488 -3.5063 -0.0495139 0.115199 0.450603
385 0.60494 0.905409 0.996544 0.314003 -3.50459 -0.71417 0.376898 1.07117
387 0.652649 0.90483 0.0489601 0.23373 -3.48818 -0.348411 -0.282162 -0.849337
352 0.69634 0.853924 0.0492012 0.561877 -3.47534 -0.0426906 -0.636579 -0.644712
346 0.652149 0.856611 0.998633 0.14965 -3.49588 0.111815 0.365324 -0.290295
389 0.704953 0.90428 -0.000448597 0.468341 -3.4773 -0.766101 -0.428365 -0.114275
391 0.748379 0.898347 0.0477091 0.656193 -3.47449 1.05871 1.39381 1.60351
356 0.798557 0.848408 0.0499805 0.357518 -3.46661 -0.773557 0.849404 0.207482
350 0.746166 0.849526 0.0012052 0.660383 -3.49089 0.394989 0.458373 -0.236373
393 0.796646 0.904716 0.999234 0.483649 -3.45123 0.155215 -0.97434 0.0249695
360 0.893941 0.846714 0.0478507 0.579903 -3.46449 0.955652 1.29951 -0.389674
395 0.849006 0.901347 0.0458398 0.504344 -3.4778 -0.738582 0.253799 0.760288
354 0.847468 0.849614 -0.00100551 0.306074 -3.4837 -0.808973 -0.306573 0.057408
397 0.898942 0.900785 0.998815 0.27101 -3.48315 -0.358381 -0.453446 0.326938
399 0.945099 0.899133 0.0499354 0.156502 -3.48976 0.332443 0.329524 -0.673388
361 0.998157 0.898566 0.00411059 0.9304 -3.47201 -0.109491 0.317061 -0.920315
364 0.996504 0.950243 0.0492431 0.123313 -3.51733 -0.0689518 0.0225861 -0.202423
366 0.151518 0.949958 0.00190612 0.314446 -3.48383 -0.386223 -0.0213239 -1.15594
368 0.0958846 0.949231 0.0494279 0.245999 -3.49301 0.674255 0.682907 -0.0831804
372 0.197423 0.948288 0.0517091 0.234864 -3.47672 0.0251103 1.03062 -0.232485
376 0.300335 0.947343 0.0495218 0.252511 -3.43793 0.130265 -0.0311418 1.09266
380 0.402094 0.947732 0.0503403 0.252594 -3.4911 -0.3185 -1.31352 0.491979
384 0.501141 0.950807 0.0487785 0.0640265 -3.49 0.0182149 0.132395 -0.198649
23 0.549664 0.00100763 0.0480525 0.254729 -3.5158 0.209759 0.655122 0.246704
388 0.605693 0.953747 0.0481529 0.444545 -3.48649 -0.70008 -0.234584 0.359824
27 0.654492 0.00298295 0.0474333 0.491138 -3.49206 -0.274266 0.177458 0.0125837
392 0.700285 0.951389 0.0521603 0.441847 -3.47751 0.120763 0.0522425 -0.390386
386 0.655079 0.956338 0.99684 0.505165 -3.49667 0.256965 -0.273718 0.635891
396 0.80045 0.951616 0.0510532 0.265156 -3.47722 -0.0349071 -0.169676 0.629632
390 0.752656 0.953601 0.00426981 0.795136 -3.46186 -0.423181 -0.224178 -0.651405
33 0.795593 0.00513256 0.000325002 4.7662 -3.45242 0.0357332 -0.441956 0.153851
400 0.899333 0.950076 0.0480996 0.179453 -3.52112 -0.633002 -0.113974 0.12408
39 0.947416 1.0007 0.0495747 0.134237 -3.52184 -0.131975 -0.561568 0.0205115
398 0.946371 0.950414 -0.000887876 0.16943 -3.50031 0.674179 0.202163 0.466765
402 0.0466933 0.0477494 0.100531 0.200336 -3.51065 0.00192313 0.990671 -0.239441
404 -0.00187929 0.0451362 0.150753 0.541784 -3.4432 0.0811471 0.746952 -0.106008
401 0.999169 -0.00226607 0.0996008 0.405925 -3.47879 -0.549083 1.27163 -0.842738
403 0.0498231 0.998712 0.150293 0.354244 -3.50053 -0.443143 -0.897996 -0.328061
406 0.145334 0.0481742 0.103674 0.459547 -3.48223 0.785946 1.27238 -0.631723
408 0.0980954 0.0482011 0.151279 0.210146 -3.47011 -0.430073 -0.731312 -0.612237
405 0.097484 0.999117 0.0999392 0.0638975 -3.50504 -0.40207 -0.50992 0.448231
407 0.144671 0.996271 0.150484 0.266988 -3.50343 0.803833 0.0543253 -0.153483
412 0.196391 0.0483626 0.154882 0.455621 -3.47664 0.105042 -0.405714 -0.166997
410 0.252259 0.0471619 0.102846 0.43191 -3.47246 -0.874727 -1.09334 -0.818611
409 0.197146 0.00085751 0.100453 0.612134 -3.51361 -0.0688992 -0.51459 0.403698
413 0.300165 0.997053 0.103261 0.151512 -3.50018 0.359083 -1.05086 -0.0911348
416 0.300217 0.0451763 0.155168 0.356915 -3.5052 -0.127147 0.530527 -0.301745
414 0.349808 0.0456286 0.105126 0.341946 -3.5126 -0.185888 -0.316691 -0.868522
420 0.402459 0.0466507 0.152124 0.306324 -3.49577 -0.829913 -0.244919 -0.817513
418 0.450211 0.0483134 0.0977102 0.33027 -3.48898 -0.108376 -0.228798 1.51619
417 0.402815 0.997302 0.0993331 0.325343 -3.50972 -0.639583 0.442038 0.595901
419 0.450649 -0.002071 0.151855 0.312247 -3.44284 0.470172 0.436332 -0.814915
424 0.499112 0.0495565 0.150162 0.241611 -3.49253 0.365732 -0.912556 0.00984428
421 0.501078 -0.000472161 0.0980339 0.100796 -3.51755 -0.0104049 0.355377 0.523697
422 0.550122 0.052462 0.0989229 0.151703 -3.51026 0.306347 -0.24854 -0.537318
423 0.551488 0.000593761 0.148924 0.164442 -3.50036 0.211393 -0.425212 -0.476865
425 0.599371 0.00223613 0.0988898 0.265868 -3.52 0.39953 -0.30459 -0.0696177
428 0.602283 0.0513654 0.149116 0.274054 -3.49288 -0.359095 -0.267003 -0.153547
426 0.653699 0.0502957 0.0977256 0.53895 -3.50838 -0.606156 0.41556 0.656224
429 0.697527 0.996794 0.0996423 0.770242 -3.46139 0.661421 1.10167 0.503152
432 0.699273 0.0500436 0.150212 0.138124 -3.48738 0.336418 -0.197156 -0.788117
430 0.748467 0.0500643 0.10073 0.447992 -3.50576 0.209051 0.0829356 0.181816
433 0.800103 0.00073137 0.101763 0.221707 -3.48612 0.910186 -0.841019 0.299197
436 0.803255 0.0476346 0.150951 0.338673 -3.48606 -0.343629 -0.260398 0.724739
434 0.856216 0.0513803 0.0978395 0.937964 -3.46727 -0.455001 -0.0749102 -0.43467
435 0.853606 0.998688 0.152974 0.581453 -3.44134 -0.0880927 0.217041 -0.58063
437 0.898801 1.00011 0.0976286 0.179007 -3.48142 0.0724008 0.0705114 1.5158
440 0.899403 0.048864 0.151062 0.264977 -3.4913 0.207839 -0.609193 -0.493942
438 0.945879 0.050911 0.0992976 0.362742 -3.49889 0.678871 -0.313753 -0.519535
439 0.948748 0.998436 0.14919 0.176448 -3.50333 -0.887823 0.399679 -0.800057
441 0.99706 0.103053 0.0999397 0.401496 -3.4529 0.576701 -0.512857 -0.876356
442 0.0468487 0.15398 0.0969349 0.812277 -3.47576 -0.0215038 0.0200985 0.553037
443 0.05076 0.0975404 0.151068 0.704163 -3.44351 -1.12721 0.265386 -0.271328
444 0.996253 0.150554 0.150839 0.444391 -3.47722 -0.00249402 -1.145 -0.48899
445 0.0972947 0.101791 0.101512 0.391023 -3.46814 0.371533 -0.429316 0.143758
446 0.151674 0.149209 0.103779 0.134666 -3.46193 -0.510557 -0.13622 0.868413
447 0.150644 0.0980206 0.157222 0.901205 -3.44694 -0.19308 0.188159 -1.94375
448 0.0974898 0.150026 0.150834 0.2604 -3.50166 0.432571 0.367404 -0.880737
449 0.201213 0.097005 0.104348 0.269806 -3.46023 -0.306267 -0.583773 -0.8956
452 0.202783 0.145961 0.152557 0.396262 -3.47745 -0.427765 0.878603 0.64521
450 0.247986 0.14816 0.105786 0.289088 -3.46653 0.29133 0.0105957 -0.642112
451 0.247367 0.0929636 0.154685 0.580735 -3.47922 0.162858 1.03335 0.701746
453 0.295621 0.0971972 0.105296 0.528377 -3.46321 0.547335 -0.932626 0.0801159
456 0.294851 0.143669 0.153201 0.657292 -3.45266 1.07444 0.87687 1.02129
454 0.347972 0.146331 0.102724 0.176168 -3.49418 -0.253363 -0.102764 -0.964968
455 0.349759 0.0938696 0.150494 0.719245 -3.42983 -0.337618 -0.536725 0.698054
457 0.398647 0.0984344 0.10156 0.184454 -3.4876 -0.357629 -0.108013 0.422149
460 0.397308 0.150044 0.149692 0.510772 -3.47564 -0.546106 -1.85686 0.543431
458 0.444246 0.147548 0.0998873 0.50882 -3.49858 1.53283 0.68599 0.945611
459 0.451409 0.0960793 0.150674 0.517871 -3.46659 -0.711025 0.797067 -0.783787
461 0.49776 0.0996426 0.101552 0.305084 -3.49375 0.619349 0.160856 -0.985942
464 0.498509 0.147321 0.15296 0.31717 -3.49912 -0.221755 0.289901 -1.19297
463 0.556321 0.100228 0.150139 1.14221 -3.46636 -1.61531 0.401956 -0.0633299
462 0.54764 0.14826 0.0996049 0.331051 -3.52289 0.426011 0.0325546 0.837937
465 0.600312 0.102525 0.10174 0.288698 -3.49393 0.502133 -0.659217 -0.584824
468 0.600306 0.149773 0.151454 0.169934 -3.49242 0.0655643 0.215656 -0.0921724
466 0.647734 0.152044 0.101171 0.276444 -3.51226 0.520895 -0.540743 -0.338956
467 0.650513 0.0996552 0.150391 0.154562 -3.49562 -0.0134925 -0.189229 -0.0122719
469 0.700619 0.103528 0.100248 0.319483 -3.50512 0.005297 -0.545363 0.11833
472 0.702259 0.15076 0.149423 0.230133 -3.48992 -0.390232 -0.339176 0.636304
471 0.750415 0.102567 0.148112 0.605001 -3.48933 0.438451 -1.08587 0.506563
470 0.755955 0.153733 0.0985754 0.725773 -3.493 -0.487319 -0.493388 0.132934
473 0.804386 0.0971697 0.101479 0.826842 -3.49649 -0.228843 0.330957 -0.04385
476 0.802941 0.147351 0.149931 0.261707 -3.49531 0.2351 0.943096 0.367744
474 0.854208 0.148333 0.101979 0.593667 -3.48195 -0.819536 0.860545 -0.237005
475 0.849517 0.0967369 0.151351 0.673286 -3.50142 0.719786 0.440687 0.242372
477 0.901608 0.103528 0.0990388 0.42417 -3.43681 -0.128008 -0.0539862 0.212956
480 0.900691 0.148592 0.151623 0.292356 -3.49358 0.485685 -0.118086 -0.151716
478 0.949086 0.155496 0.0979357 0.457162 -3.49398 -0.670101 -0.159695 0.249514
479 0.950879 0.095064 0.148243 1.12227 -3.4676 -0.554232 0.73745 -0.0275359
483 0.0496306 0.200107 0.148966 0.234219 -3.52408 -0.500402 -0.0391083 0.157127
485 0.103875 0.203601 0.100574 0.410531 -3.5002 0.125834 -1.04391 0.20456
487 0.152695 0.201452 0.153728 0.547525 -3.4688 -0.47887 -1.27418 -0.486934
488 0.102644 0.249354 0.148496 0.176775 -3.5145 -0.14717 0.420932 0.140003
489 0.199951 0.197168 0.103317 0.448761 -3.49159 0.917622 1.4102 0.206215
491 0.250141 0.196781 0.15113 0.178886 -3.49051 0.0270697 0.39788 0.575425
492 0.202499 0.250036 0.151692 0.135588 -3.49443 0.561952 -0.683615 -0.94206
493 0.300608 0.197194 0.100572 0.293547 -3.47152 -0.377343 0.467979 0.605042
495 0.345112 0.196323 0.150495 0.435533 -3.49 0.603407 0.269938 0.933582
497 0.396816 0.198574 0.10059 0.122101 -3.49652 0.172454 -0.0632908 1.0591
499 0.446334 0.197689 0.149387 0.143889 -3.48718 0.127118 -0.608538 0.345386
501 0.497341 0.198111 0.100148 0.148667 -3.50001 -0.401815 -0.776031 0.719783
503 0.546899 0.198034 0.149871 0.132174 -3.50799 0.800703 0.340643 0.240617
505 0.598154 0.199605 0.0989999 0.107296 -3.498 -0.324075 -0.185411 0.707876