ITEM: TIMESTEP
3000
ITEM: NUMBER OF ATOMS
4000
ITEM: BOX BOUNDS pp pp pp
2.6240016459222182e+00 3.3475998354077710e+01
-1.6215793571816697e+00 3.7721579357181682e+01
-1.4113862638899199e+00 3.7511386263889875e+01
ITEM: ATOMS id xs ys zs c_csym c_peratom fx fy fz
3 0.0512969 0.00738106 0.0513819 0.52727 -3.45445 -1.65247 -0.0298472 0.858335
8 0.096892 0.0604166 0.0523294 0.439905 -3.50139 0.442176 -0.44672 -0.745859
7 0.151578 0.0100431 0.0509845 0.159536 -3.49608 -0.076963 -0.180372 0.0921032
6 0.148072 0.0670183 1.00171 0.239541 -3.47785 -0.364979 -0.625426 -0.108592
12 0.19832 0.0605853 0.0526102 0.355894 -3.49863 0.475504 -0.343203 -0.587637
16 0.30092 0.0612189 0.0509199 0.286049 -3.48375 0.218841 0.23724 -0.340493
10 0.250527 0.0661406 9.15101e-05 0.248353 -3.50021 0.0038785 0.474264 -0.0594922
20 0.403342 0.0594602 0.047691 5.01517 -3.48699 0.0785717 0.543852 0.479212
14 0.352316 0.0652426 0.00232609 5.61315 -3.46102 0.0499206 0.89519 -0.876746
17 0.408122 0.0185348 0.997144 0.837456 -3.45495 -0.466389 0.0921105 0.818885
19 0.452424 0.00966029 0.0476234 5.44892 -3.48137 -0.00881234 -0.57392 0.271261
18 0.45616 0.0664655 0.999032 5.50437 -3.50669 0.0857902 0.544145 0.225254
24 0.501077 0.0581455 0.0520243 5.10695 -3.48387 0.88213 -0.0943281 -1.14048
23 0.55012 0.00593766 0.0537792 5.26014 -3.471 0.5927 0.409759 -0.298259
21 0.509193 0.0164813 1.00114 5.14634 -3.47656 -0.857114 0.471948 -0.046898
22 0.554209 0.0696381 -0.00230585 5.37575 -3.47974 0.103605 -0.472521 0.560127
28 0.599861 0.0553062 0.0528264 5.48485 -3.48345 0.196974 0.26808 -0.923057
25 0.599935 0.0161733 1.0008 0.226237 -3.50348 0.249922 0.135948 0.208145
26 0.650474 0.0646328 -0.000168077 5.20075 -3.50389 0.258542 0.230822 0.261826
27 0.648399 0.00516892 0.0507747 5.49449 -3.50571 0.146247 -0.28849 0.0536233
32 0.704556 0.0529931 0.0478829 5.84145 -3.44034 -1.43595 0.900825 0.898713
29 0.697881 0.0124171 -0.00164093 5.52649 -3.49427 -0.0720583 0.0278002 0.604252
31 0.746986 0.00420205 0.052304 5.44671 -3.49465 0.185606 -0.287391 -0.228286
30 0.750431 0.0607916 0.00206924 5.51868 -3.44531 -0.304963 1.13884 -0.830425
36 0.796565 0.053681 0.0486378 5.23896 -3.47714 0.333318 0.254216 1.07242
35 0.848457 0.0051091 0.0515591 5.62395 -3.49702 -0.243266 -0.430256 -0.164235
40 0.894754 0.0528621 0.0492862 5.48795 -3.48244 0.664803 0.615977 1.2819
37 0.897743 0.011676 1.00251 5.5729 -3.49793 0.103382 -0.0655232 -0.556505
4 0.99577 0.0539226 0.0534617 0.218619 -3.51103 0.0101077 0.120668 -0.371335
39 0.946382 0.00384724 0.0532455 5.48332 -3.50618 0.0535117 0.293659 -0.272246
43 0.0425643 0.106851 0.0526103 0.361617 -3.49584 0.267677 0.0876013 0.159037
44 -0.00805205 0.154821 0.053902 0.485402 -3.48915 0.631135 0.267021 -0.456756
47 0.150769 0.107741 0.0542117 5.20292 -3.48805 -0.503903 0.212942 -0.58013
48 0.0957536 0.159199 0.0540069 0.301681 -3.49909 0.0182245 -0.372429 -0.428904
46 0.144525 0.167437 0.000497973 5.23508 -3.48962 0.13895 -0.688621 -0.112122
49 0.193789 0.113969 0.999725 4.99107 -3.4726 0.680678 0.824979 0.208447
52 0.193167 0.157616 0.0510813 4.82195 -3.48916 0.699964 0.133545 -0.353365
51 0.245479 0.109484 0.0516862 5.26704 -3.4771 0.764494 0.04392 -0.77836
50 0.246558 0.164498 -0.000770779 0.294767 -3.49424 -0.439757 0.205171 0.308257
56 0.29699 0.158272 0.0491098 0.465962 -3.48536 0.174968 0.977406 0.618574
53 0.30058 0.11995 -0.00102907 0.545051 -3.45972 -0.346635 -1.13443 0.0457734
54 0.351507 0.167839 -0.000298205 0.132914 -3.50355 0.0666211 -0.014898 0.154166
55 0.352495 0.113803 0.0449121 1.10428 -3.47211 0.250748 -0.434603 1.12315
60 0.404732 0.161081 0.0479815 0.160184 -3.4839 0.324918 -0.177275 -0.0354676
57 0.404874 0.118126 9.17623e-05 0.29958 -3.4258 0.300762 -0.185354 -0.711365
58 0.453986 0.169802 0.995887 5.07864 -3.50505 0.0431579 -0.254524 0.232699
59 0.458418 0.110322 0.0514226 5.01998 -3.49468 -0.471798 -0.154389 -0.929895
64 0.504474 0.161489 0.048375 5.5134 -3.50287 -0.291672 -0.474437 -0.433381
61 0.504994 0.117074 -0.000285208 5.69571 -3.51024 -0.130595 0.393416 -0.208476
63 0.552798 0.109459 0.050085 0.260021 -3.51026 0.178128 -0.154458 -0.550604
62 0.55264 0.167363 -0.00155515 0.224114 -3.50696 0.117332 0.0838007 -0.29915
68 0.603693 0.161435 0.0468742 4.99941 -3.49095 -0.257013 -0.319716 0.481422
65 0.606988 0.118237 0.00148196 5.25433 -3.4731 -0.791037 -0.324012 -0.691903
67 0.648105 0.107006 0.0509551 5.53974 -3.46183 0.830333 -0.441163 -0.26838
66 0.652076 0.166579 -0.00151422 4.87838 -3.51691 0.332116 0.4844 0.095233
72 0.699637 0.15618 0.0485432 5.03276 -3.47231 -0.0519262 0.383145 0.621475
69 0.70003 0.118862 -0.000565275 5.29588 -3.45045 0.214599 -1.29378 -0.0102693
71 0.750982 0.108007 0.0482494 5.30561 -3.49608 -0.440235 -0.287985 0.91095
76 0.801095 0.156742 0.0520943 5.08517 -3.50915 -0.187262 0.0868952 -0.331735
75 0.846423 0.104278 0.0532494 4.91244 -3.49011 -0.127144 -0.0441601 -0.185333
80 0.893899 0.153482 0.0518388 5.04583 -3.47485 0.53451 0.544611 0.202569
79 0.943877 0.103999 0.0540951 5.0488 -3.50991 0.47313 -0.0855793 -0.662254
83 0.0442052 0.207888 0.0512399 0.299897 -3.49549 0.081237 -0.442087 0.299455
87 0.146316 0.207736 0.0499022 0.236728 -3.49489 -0.0565316 0.193333 0.102804
91 0.24485 0.208315 0.0480368 0.505529 -3.47202 0.351316 0.467584 0.893642
89 0.195005 0.216054 -0.00177657 0.208985 -3.51708 0.123767 -0.0497739 0.18604
95 0.349481 0.207946 0.0499137 0.215764 -3.4898 0.00835553 0.0378047 0.286635
93 0.296088 0.215852 -0.000137745 0.292395 -3.51411 0.453359 0.0428565 0.343042
100 0.40207 0.258247 0.0487427 0.149655 -3.49659 -0.213459 0.198593 0.451212
97 0.403164 0.218147 9.68757e-05 0.21841 -3.50713 -0.452024 -0.382738 0.172159
99 0.453705 0.209491 0.0505917 0.370362 -3.49574 0.435688 0.414644 -0.669368
104 0.505268 0.265048 0.048565 5.05317 -3.48167 -0.0714724 -0.967698 -0.222722
101 0.502157 0.219593 0.000230978 0.382063 -3.51504 0.233652 -0.0764251 -0.0348247
98 0.45129 0.26756 1.0009 0.0943858 -3.5089 -0.0180723 0.120225 -0.125399
103 0.550992 0.208766 0.0480117 0.45319 -3.50343 0.330741 0.644707 0.00290039
108 0.602011 0.260854 0.047762 5.33825 -3.4866 0.141894 0.154079 0.564361
105 0.603416 0.218808 -0.00111024 0.193567 -3.49619 -0.296242 -0.823843 -0.171878
107 0.649743 0.211865 0.0481834 4.98464 -3.50463 0.390597 -0.677034 0.180515
109 0.703453 0.215963 -0.000308508 5.43132 -3.504 -0.0673741 0.131558 0.342325
111 0.749648 0.206108 0.0524629 5.26002 -3.50372 0.0805847 0.638587 -0.11675
115 0.844591 0.209063 0.0503123 0.588595 -3.49439 0.633164 -0.737897 -0.0947348
119 0.942935 0.204217 0.0534878 4.97277 -3.50172 0.400157 0.0377935 -0.305322
84 -0.00689297 0.257091 0.0495547 5.36122 -3.48602 -0.0123184 -0.364571 0.450361
123 0.0458418 0.307543 0.0545959 0.513875 -3.48624 -0.692632 -0.536997 -1.18255
88 0.0908487 0.259923 0.0527542 0.979089 -3.47422 0.896534 -0.767143 -0.349844
127 0.145531 0.305889 0.0511401 0.287018 -3.50304 0.126028 0.119201 -0.0162247
92 0.194986 0.257497 0.050518 0.221868 -3.50267 0.518176 0.138603 0.0542145
131 0.247793 0.303592 0.0510179 5.07115 -3.46361 -0.325585 0.880669 -0.0447167
96 0.29654 0.258366 0.0535961 5.51674 -3.4878 0.644166 -0.419139 -0.782659
135 0.345607 0.306199 0.0498536 0.338428 -3.48838 0.595257 -0.0673203 -0.0489368
94 0.348089 0.264528 0.999959 5.15686 -3.49041 -0.202598 0.1408 0.144258
133 0.297809 0.317108 -0.00316098 5.30162 -3.47279 -0.296862 -0.963932 0.138148
137 0.395374 0.315102 -0.00132085 5.1196 -3.49181 0.523744 0.21946 0.269239
139 0.451672 0.309551 0.0495068 0.137176 -3.48827 -0.44301 0.0862334 0.0312068
141 0.500751 0.316881 0.000340959 0.277563 -3.51398 0.281766 -0.0560028 -0.174465
143 0.555044 0.312873 0.046667 5.15108 -3.5133 -0.201952 0.129928 0.307462
102 0.557157 0.266327 -0.000613768 5.40048 -3.49017 -0.618938 0.467031 -0.0162741
145 0.605908 0.317405 -0.000485861 5.29546 -3.48206 -0.189865 0.22903 -0.109924
106 0.654149 0.263811 1.00144 4.96991 -3.48856 0.0984529 0.840908 -0.504854
147 0.652873 0.309833 0.0483895 5.44298 -3.51921 0.0937349 -0.266993 0.235278
112 0.700754 0.259044 0.0505644 5.61914 -3.51528 0.147982 -0.0904051 0.295647
116 0.798519 0.25877 0.0496669 5.32546 -3.47086 0.191715 -0.233115 0.104807
151 0.751905 0.307168 0.0495693 5.56056 -3.48988 -0.297333 0.758216 0.295002
120 0.897294 0.255807 0.0502361 0.197595 -3.50724 0.110996 0.176276 0.227363
155 0.849899 0.307188 0.0481703 0.244712 -3.50082 0.107459 0.152525 0.97091
159 0.947939 0.306365 0.0481302 5.44491 -3.51174 -0.696797 -0.195168 0.690738
163 0.0460128 0.408932 0.0526943 5.66296 -3.46897 0.177985 -0.591143 -0.137603
124 -0.00666068 0.35613 0.0527847 5.31139 -3.50104 0.559927 0.152331 -0.605146
128 0.0965856 0.355828 0.0494472 0.386161 -3.45165 -0.0922658 0.826218 1.31278
167 0.14874 0.404379 0.0528017 0.290677 -3.5058 -0.234493 0.00863238 -0.647989
165 0.0976579 0.414262 1.00146 5.3444 -3.50378 -0.0516281 -0.203479 0.013051
132 0.198041 0.355668 0.0484648 0.282361 -3.50009 0.290184 -0.0290148 0.512245
171 0.250416 0.406148 0.0516231 5.60632 -3.49024 -0.46678 -0.609964 -0.406435
136 0.29632 0.353181 0.0509068 4.96152 -3.50513 -0.0578865 0.498641 -0.184391
175 0.348408 0.403205 0.0521148 5.25857 -3.4821 -0.351571 0.659374 -0.498296
140 0.398857 0.356856 0.0502649 0.169188 -3.48955 0.457512 0.0736186 0.136201
134 0.346116 0.362898 1.00356 5.3866 -3.46377 0.269998 0.664579 -1.01221
179 0.449232 0.409961 0.051932 0.447373 -3.48844 0.072362 -1.22158 -0.28993
138 0.451778 0.365831 -0.000519793 0.273205 -3.47577 -0.280294 0.175029 0.775268
144 0.500781 0.360415 0.0502331 0.177204 -3.50103 -0.117787 -0.204177 -0.209082
177 0.403152 0.413481 0.00059685 4.84194 -3.47736 -1.18173 0.307932 -0.273205
181 0.498215 0.417051 -0.00111964 5.23286 -3.48605 -0.0140375 -0.41828 0.549315
183 0.549705 0.408125 0.0534997 0.718886 -3.49045 0.530237 0.0189934 -0.686967
148 0.606177 0.360102 0.0481412 4.90329 -3.50338 -0.0564059 0.375168 0.0961162
142 0.552302 0.36658 0.00107375 0.367632 -3.51137 -0.118305 0.130337 0.0606448
185 0.596657 0.42002 -0.000661528 5.21131 -3.44809 0.487764 -0.250327 -0.119964
146 0.654342 0.368066 -0.00298478 5.2858 -3.474 -0.188843 0.483102 0.644394
187 0.653916 0.411416 0.047457 0.512784 -3.49915 -0.0443154 -0.184416 -0.0319125
152 0.70267 0.357611 0.0518281 5.5488 -3.5023 0.0122805 0.489455 -0.603934
189 0.705417 0.417356 -0.000917377 5.33009 -3.52144 -0.0641712 0.0382895 0.129651
191 0.75712 0.406368 0.0495927 4.95051 -3.49519 -0.64195 0.697849 0.106006
156 0.800995 0.357669 0.051547 0.224247 -3.49741 0.334222 0.0344374 0.0254545
160 0.899095 0.357449 0.0510115 0.145267 -3.50405 -0.0444631 -0.0290261 0.0249655
195 0.853163 0.409199 0.0502177 0.239358 -3.50567 -0.536113 -0.00833808 -0.06656
199 0.946953 0.410422 0.0506953 5.17693 -3.49494 0.267806 -0.490752 0.0119155
164 -0.00253491 0.461091 0.0493043 5.39158 -3.49696 -0.0499675 -0.762175 0.325775
168 0.101592 0.455366 0.0509433 5.81828 -3.49633 -0.646205 0.230963 0.302208
172 0.200039 0.453908 0.0488651 0.526833 -3.49377 -0.582269 0.351052 0.358244
176 0.29707 0.456246 0.0502607 5.44895 -3.48325 0.0567926 0.188285 0.0119213
180 0.396658 0.454719 0.0499819 0.425644 -3.5018 0.0508481 0.123911 0.10357
184 0.498141 0.456322 0.0534062 0.418804 -3.4832 0.388277 0.228764 -0.451988
178 0.448772 0.464218 0.997779 5.33048 -3.4859 -0.136961 -0.122583 0.414607
188 0.599043 0.460768 0.0529764 0.522712 -3.46754 0.0492368 0.0108626 -1.35443
223 0.543953 0.508395 0.0522369 0.718908 -3.45645 0.994042 -0.2998 0.141172
225 0.596843 0.514378 1.00626 1.05691 -3.45879 0.124016 -0.274574 -1.16071
182 0.542245 0.466152 0.999959 5.28017 -3.4674 0.624416 0.0597212 0.143417
227 0.65125 0.510165 0.0520071 0.287785 -3.4989 0.644198 -0.0956635 0.0129915
192 0.707535 0.458951 0.0511805 5.06526 -3.48198 -0.0471127 0.0282111 -0.399068
186 0.653584 0.465495 0.00339134 0.529864 -3.496 -0.236573 0.239402 -0.160504
229 0.702906 0.515865 1.00093 0.237273 -3.46414 0.359004 0.341356 -0.286866
196 0.802605 0.461492 0.0519581 5.29409 -3.48798 0.175604 -0.635855 -0.526449
231 0.755169 0.510405 0.0515446 5.34439 -3.50559 -0.165812 0.0538451 -1.09281
200 0.899897 0.459019 0.0489441 5.4416 -3.50873 0.0298244 0.0858772 0.210589
203 0.0451163 0.506802 0.0509824 5.51866 -3.45317 1.1477 -0.0392961 -0.451571
207 0.147961 0.506092 0.0512429 5.53349 -3.46786 -0.428744 -0.0524154 -0.389131
208 0.0966487 0.55919 0.0500412 4.90066 -3.50316 0.52121 -0.592046 0.0322725
211 0.244089 0.50875 0.0495673 5.10206 -3.48623 0.725108 -0.625739 -0.0793579
212 0.199901 0.557153 0.0491555 0.276789 -3.46037 -0.846227 0.506194 -0.168771
209 0.192514 0.517564 -0.000128823 4.91437 -3.4853 0.940829 -1.12763 -0.0914485
215 0.349929 0.505947 0.0526242 5.41616 -3.50564 -0.316651 -0.155619 -0.269672
216 0.298609 0.55473 0.0501358 0.175071 -3.50991 0.115021 -0.0104027 -0.0156978
220 0.401968 0.555604 0.0497399 5.55771 -3.49473 -0.31566 -0.0159224 0.413703
219 0.445672 0.503163 0.0516326 5.2171 -3.51242 0.323994 0.285044 0.142213
224 0.498062 0.553758 0.0518094 5.30157 -3.46771 -0.410993 0.867012 -0.244784
221 0.494369 0.512531 1.00321 5.20377 -3.47689 0.142811 0.534299 -0.720372
218 0.44857 0.562709 -0.00213367 0.26633 -3.49795 -0.171054 0.279738 0.168739
228 0.601042 0.559589 0.0510641 0.280462 -3.46216 -0.26266 -0.952404 -0.389442
222 0.54535 0.563086 0.000438406 5.49266 -3.47176 0.667368 0.0140929 -0.211622
226 0.65216 0.565547 1.00121 5.50085 -3.4979 -0.344837 -0.0956606 -0.0843373
232 0.705064 0.560246 0.0469268 5.34923 -3.50581 -0.264947 0.091819 0.998211
236 0.806303 0.559994 0.0490982 5.40228 -3.51726 -0.498658 0.146831 -0.0793204
235 0.850882 0.50964 0.0496032 5.62462 -3.51176 0.329478 0.218379 0.00794164
240 0.897742 0.559053 0.0482633 4.91977 -3.49882 0.783488 -0.158391 0.528649
239 0.950431 0.509128 0.0490954 5.31413 -3.51438 -0.556507 0.0572318 0.0351312
204 0.000181787 0.554696 0.0528069 5.27737 -3.486 -0.234493 1.05897 -0.44215
243 0.0500016 0.608663 0.0492436 5.50517 -3.48688 -0.0828008 -0.151084 0.561284
248 0.100767 0.654966 0.0482154 5.21093 -3.5018 -0.0319696 0.48871 0.109964
247 0.149505 0.608016 0.0479842 5.60678 -3.51951 0.105109 -0.512402 0.144475
252 0.203456 0.656519 0.0517444 4.9832 -3.48514 -0.455704 0.349227 -0.47403
251 0.250234 0.604537 0.0472897 5.20108 -3.52438 -0.013808 0.2898 0.375074
256 0.300704 0.654746 0.0487605 5.0349 -3.51058 -0.499735 0.0231356 0.485016
255 0.348985 0.605989 0.0524273 4.79188 -3.49616 0.0580099 -0.383148 -0.842503
260 0.396338 0.655583 0.0501656 5.39481 -3.51815 0.443273 -0.0923846 -0.0217976
259 0.447325 0.606044 0.0453634 5.31972 -3.47127 0.455758 -0.396407 0.525456
264 0.497668 0.651945 0.0498306 0.748271 -3.488 0.278344 0.724787 -0.194734
263 0.548504 0.605082 0.0450783 5.21505 -3.44823 -0.359455 0.661113 2.36686
265 0.602467 0.613434 0.999466 0.640045 -3.49203 -0.582276 -0.0929882 -0.440619
261 0.500903 0.614129 0.996668 4.95087 -3.49374 -0.471467 0.157482 0.383822
262 0.55006 0.663651 0.000751446 0.176622 -3.51655 -0.292225 -0.0197465 0.0491252
268 0.597821 0.65323 0.0509162 0.850059 -3.4803 0.859844 1.15578 -0.248631
267 0.652196 0.610502 0.0475123 0.370871 -3.50688 0.159806 -0.340127 0.351961
269 0.702414 0.618448 0.999728 0.237935 -3.48036 -0.0696645 0.0483932 0.135312
272 0.697671 0.661695 0.0514763 0.520658 -3.48831 0.700871 -0.305962 -0.0433123
271 0.755608 0.610385 0.0509085 4.80534 -3.48567 -0.490043 0.0578029 -0.239571
276 0.800868 0.659894 0.0478757 0.173537 -3.48701 -0.000692075 0.269611 0.344625
275 0.851415 0.612311 0.0478483 5.29344 -3.49217 0.294221 -0.576184 -0.561874
280 0.902757 0.66396 0.0462637 5.25079 -3.47272 0.0141094 -0.586763 0.518841
244 0.00502872 0.660522 0.0522862 5.05225 -3.48879 -0.673118 -0.0318265 -0.679223
279 0.949419 0.608605 0.0531742 5.08364 -3.46166 0.137627 0.231717 -0.852241
283 0.0544407 0.708852 0.0492133 5.57856 -3.48953 -0.0529146 0.384021 -0.188921
287 0.147063 0.707555 0.0496142 5.3255 -3.44275 0.924932 0.270594 -0.302407
286 0.149297 0.770553 -0.00158769 5.34842 -3.49064 0.95424 -0.386351 0.443904
291 0.255582 0.706205 0.0490446 5.33921 -3.48571 -0.844287 0.170609 -0.0324907
292 0.201239 0.760101 0.04957 5.70118 -3.46442 0.076925 -0.159258 -0.503052
289 0.198131 0.716888 0.000574426 0.487458 -3.4708 0.71773 -0.00250589 0.165532
295 0.348307 0.706746 0.0517129 5.55624 -3.48968 -0.49025 0.139596 -0.192349
299 0.448993 0.70573 0.0493768 0.181936 -3.48516 -0.55496 -0.0114324 -0.195057
303 0.549977 0.705204 0.0521756 5.09636 -3.50167 -0.0616363 -0.134841 -0.355944
305 0.596072 0.714618 1.00187 5.38363 -3.51364 0.631919 -0.145992 -0.0100258
307 0.647948 0.706878 0.0525096 0.595668 -3.4649 -0.0677799 -0.114574 -0.986168
311 0.75069 0.710154 0.0525048 0.558667 -3.45462 -0.392981 -0.606105 -1.05489
315 0.848532 0.708495 0.0493909 0.33297 -3.4973 0.24736 0.417684 -0.574897
320 0.901401 0.75914 0.0482406 0.181763 -3.48027 -0.454034 -0.122039 -0.360954
284 1.00496 0.762049 0.0464497 0.424511 -3.49266 -0.0840151 -0.246524 0.552881
319 0.956846 0.711193 0.0483392 5.32421 -3.48644 -0.598673 -0.00170087 -0.396246
288 0.105834 0.761659 0.0488593 5.54994 -3.5027 -0.444981 -0.24716 -0.0269083
323 0.0555353 0.811545 0.0482472 5.64557 -3.48879 -0.0241619 0.03565 0.117796
325 0.105848 0.81899 0.998737 5.34466 -3.50643 -0.685646 0.177638 -0.342469
327 0.152794 0.814165 0.0478456 5.52317 -3.50799 0.0396895 -0.295852 0.508793
331 0.252109 0.811841 0.0505102 0.182455 -3.50372 0.0514349 -0.394895 -0.193477
329 0.201876 0.819657 -0.000522575 0.100836 -3.51389 0.113906 0.183265 0.0748721
294 0.348688 0.764454 1.00116 5.2932 -3.5117 -0.184602 0.48017 -0.304957
296 0.300897 0.757132 0.0496712 4.96236 -3.5027 -0.3709 0.723769 0.195696
333 0.300504 0.816396 1.00016 5.3174 -3.519 0.0932557 0.169448 -0.214692
335 0.351289 0.810811 0.0486499 5.43389 -3.48677 -0.493192 -0.675635 0.306008
300 0.395122 0.756836 0.0492839 5.27996 -3.49564 0.63628 0.0909795 0.466579
339 0.450678 0.803578 0.0528901 5.07402 -3.49953 -0.274208 0.528143 -0.223055
337 0.401698 0.814524 1.0003 5.34006 -3.49882 -0.179217 0.288771 -0.178701
308 0.597667 0.757833 0.0514804 0.283176 -3.48607 -0.464374 0.221505 -0.190135
304 0.500907 0.755068 0.0489969 0.335684 -3.50831 -0.032761 0.189388 0.764945
343 0.546521 0.806119 0.0516114 0.201593 -3.51237 0.309714 -0.0346519 -0.0745141
341 0.498485 0.814984 0.00295366 5.11917 -3.49956 0.124681 -0.308459 -0.82945
345 0.597926 0.816216 1.00244 0.382979 -3.48613 0.0478257 -0.250818 -0.584783
312 0.698953 0.75351 0.0493439 0.849833 -3.48553 -0.0715383 1.65133 0.752725
347 0.645076 0.805739 0.049963 4.87745 -3.48176 0.682114 0.221349 0.15987
351 0.745447 0.805484 0.0493403 0.481366 -3.49867 0.562461 -0.262662 -0.100323
316 0.799476 0.756943 0.0495624 0.34814 -3.50983 -0.0640254 0.575784 -0.224399
355 0.846532 0.811083 0.0461418 0.861889 -3.48015 0.455802 -1.04085 0.103947
359 0.949301 0.806661 0.0475735 0.340456 -3.48172 0.407048 0.410962 0.0667023
363 0.0501091 0.909361 0.0473928 5.29468 -3.51318 0.339871 0.173209 0.248995
328 0.106557 0.863887 0.0463947 5.40308 -3.47943 -0.7887 -0.588764 0.54034
367 0.152952 0.91103 0.0512316 0.268608 -3.47859 0.145292 0.404901 -0.349177
332 0.202881 0.862645 0.0511352 4.93675 -3.4962 0.0607281 -0.0574153 -0.230558
371 0.255306 0.91165 0.0493722 4.669 -3.51168 -0.364387 -0.0935273 0.340327
330 0.255845 0.868441 -0.000367177 5.12969 -3.49768 -0.576343 -0.0404617 -0.189568
369 0.206854 0.919685 -0.00100535 5.10201 -3.49208 -0.548913 -0.316641 0.0621429
336 0.301265 0.862462 0.0494657 5.15717 -3.48503 0.0205284 -0.988844 -0.24731
375 0.351884 0.904621 0.0507388 5.78288 -3.45643 0.286797 1.13759 -0.847154
373 0.299705 0.919691 0.000214834 5.41904 -3.46652 0.587584 0.163755 -0.222903
334 0.350935 0.864897 -0.00358453 5.35941 -3.47643 0.157614 0.598715 0.609635
340 0.401118 0.85593 0.0524399 5.33913 -3.47468 0.348017 0.292546 -0.806807
377 0.402942 0.916818 0.000130763 0.397864 -3.46904 -0.480903 0.0774219 -0.55081
379 0.450787 0.90911 0.0498394 5.67883 -3.48194 0.262158 -0.390318 -0.327618
344 0.495158 0.856667 0.0515998 5.59773 -3.50519 0.282931 0.141616 0.0835679
383 0.54943 0.906916 0.0524073 5.49478 -3.48582 -0.603692 -0.267206 -0.290364
381 0.505712 0.916346 -0.00101588 4.89736 -3.455 -0.584562 0.0876774 -0.0989296
342 0.543068 0.864971 0.000838475 5.64697 -3.46952 1.08903 -0.340327 -0.0990726
348 0.596791 0.857254 0.0505978 0.161718 -3.50808 0.129625 -0.0406139 0.0209019
385 0.596754 0.911074 1.00213 4.83318 -3.47004 0.232653 0.560475 -0.566145
387 0.650981 0.90375 0.0503416 5.19456 -3.50449 -0.28751 0.402943 0.232723
352 0.700524 0.85694 0.049492 0.332683 -3.48572 -0.61567 -0.680154 -0.459709
346 0.647912 0.864861 -0.000940383 5.14179 -3.47259 0.68527 -0.942511 -0.118632
389 0.697909 0.912897 0.998981 0.26224 -3.47929 -0.109693 -0.0475868 -0.0340283
391 0.750121 0.906159 0.0516449 5.30617 -3.49953 -0.226816 -0.0252057 0.0556659
356 0.798567 0.856882 0.0467777 0.301319 -3.48147 -0.577762 -0.255509 0.225112
350 0.743704 0.865502 0.999664 4.80511 -3.46631 1.32284 -1.71543 -0.239305
393 0.794135 0.913061 0.998132 0.423214 -3.50541 0.388373 -0.214835 0.460086
360 0.900518 0.855458 0.04749 0.221015 -3.49014 -0.107156 0.419993 -0.10542
395 0.845214 0.904254 0.0490935 5.35294 -3.47645 0.735245 -0.0533108 -0.638702
324 0.00491361 0.858681 0.0472165 0.415 -3.49489 -0.437418 -0.179696 0.351723
399 0.951557 0.907401 0.0493794 0.1884 -3.49797 -0.247292 -0.543184 -0.40654
368 0.102428 0.959836 0.0495837 0.372589 -3.50598 -0.283993 -0.0211237 -0.438152
366 0.152972 0.965434 0.000337415 0.489329 -3.49869 -0.0219793 0.359784 -0.0148149
372 0.203898 0.959748 0.0507864 0.349142 -3.50106 -0.167227 0.4493 -0.340686
11 0.254472 0.0121707 0.0502056 0.241431 -3.49419 -0.3729 -0.371567 -0.217565
376 0.303658 0.961561 0.0485846 5.45338 -3.49676 -0.0209438 -0.199676 0.00080854
9 0.198259 0.0199144 1.00103 0.414841 -3.50216 0.335114 -0.389192 0.0383424
13 0.303466 0.0193439 0.00124827 0.237374 -3.48439 -0.434771 -0.0706191 -0.557265
370 0.252251 0.972673 -0.00242767 5.23221 -3.49508 -0.0476544 -0.413081 0.573632
15 0.35338 0.00988481 0.0486015 0.223173 -3.49493 0.119855 0.487113 0.354911
374 0.353047 0.972642 -0.00226846 5.43462 -3.43062 -0.556441 -1.28963 0.574817
380 0.402371 0.960245 0.0459509 5.2361 -3.49935 -0.0687438 0.0937047 0.859903
378 0.45561 0.965702 -0.00184592 4.86294 -3.5142 -0.266692 0.250621 0.261937
384 0.501078 0.961443 0.050281 5.07452 -3.50081 -0.187964 -1.13225 -0.236297
382 0.553465 0.967172 1.00166 4.81954 -3.49093 -0.38726 -1.35042 -0.730899
388 0.597627 0.952554 0.0500318 4.779 -3.49208 0.880045 1.20118 0.332785
392 0.700459 0.954894 0.0522893 5.34889 -3.50046 -0.376572 -0.237762 -0.375271
396 0.798402 0.95476 0.0511463 5.58074 -3.51242 0.28572 -0.175909 -0.15895
390 0.749843 0.963176 1.00198 0.397448 -3.51125 -0.77142 -0.256104 0.0325921
400 0.902591 0.954028 0.0506125 5.29164 -3.48454 -0.742771 -0.0890151 -0.280031
394 0.848985 0.961207 0.999628 0.246124 -3.47552 -0.289147 0.341373 0.560277
364 -0.0028317 0.95625 0.0495845 5.29614 -3.51161 0.298912 0.430811 0.28162
402 0.0476824 0.0476523 0.102557 0.267434 -3.49382 0.413996 0.310423 -0.292173
408 0.103116 0.0426708 0.149135 0.285314 -3.50794 -0.273482 -0.0581318 0.531991
405 0.100712 1.00087 0.101445 0.136466 -3.49494 -0.134251 0.226341 -0.114815
406 0.151888 0.0506989 0.100648 0.123968 -3.4967 -0.0553546 0.193611 0.121755
412 0.205703 0.043535 0.149548 0.279705 -3.51117 -0.351718 0.230031 0.40382
410 0.252211 0.0524798 0.0996122 0.186042 -3.50898 0.24351 0.491182 0.220005
416 0.305612 0.0457372 0.148708 0.0745371 -3.50707 -0.157491 -0.0280412 0.237195
414 0.353763 0.055058 0.0985633 5.20851 -3.50965 0.163438 -0.357724 -0.266624
420 0.403212 0.046896 0.146352 5.25611 -3.49999 0.309141 -0.299922 0.466645
418 0.453233 0.047692 0.0974778 0.722255 -3.48522 0.156749 1.24654 0.754791
424 0.503919 0.0436903 0.148919 5.49685 -3.50807 -0.11859 -0.218969 0.209182
421 0.500884 0.998965 0.102526 0.487831 -3.48547 0.0300528 0.0859961 -0.517921
422 0.552142 0.0488527 0.100001 5.48056 -3.50437 -0.122038 -0.307942 0.291819
425 0.601196 0.995325 0.102774 5.10965 -3.50434 -0.30903 0.245473 -0.881607
428 0.596934 0.0398978 0.152148 4.997 -3.52041 0.546096 0.408107 -0.195222
426 0.647968 0.0463376 0.100928 0.118668 -3.48146 0.374085 -0.0795244 -0.0790737
427 0.647217 0.990456 0.152435 0.377941 -3.51125 0.146773 -0.470988 -0.0156058
429 0.696727 0.992258 0.103215 4.76751 -3.48911 0.582989 0.950763 -0.526229
432 0.699178 0.0376377 0.149903 0.238794 -3.50489 -0.380455 0.351188 0.39822
430 0.744123 0.0443825 0.102369 5.04432 -3.46227 1.01577 0.484341 -0.271568
431 0.750434 0.990172 0.152023 0.415507 -3.49886 -0.0263453 -0.0368502 -0.454863
436 0.800858 0.0394088 0.152112 0.232409 -3.50749 -0.411911 -0.0603082 -0.0505208
434 0.849791 0.0483569 0.103372 5.32738 -3.49094 -0.443864 -0.369205 -0.509809
404 0.998612 0.039814 0.150193 5.58295 -3.4848 0.127938 0.411288 0.448777
401 -0.00405445 -0.000842133 0.100524 0.226222 -3.49934 0.510428 -0.253428 -0.0844559
440 0.900473 0.0415331 0.152243 0.272964 -3.49465 -0.860689 -0.569567 0.187695
438 0.944116 0.0462277 0.101724 5.17442 -3.481 0.460211 1.00198 0.475354
442 0.0456843 0.149099 0.102944 5.30601 -3.4667 1.00711 0.018026 -0.833134
443 0.0495144 0.0909781 0.150468 0.189792 -3.50975 0.206162 -0.21708 0.335008
444 0.000530946 0.139266 0.149231 5.30495 -3.46372 0.113967 0.53677 1.2497
445 0.101173 0.102418 0.101546 0.411408 -3.47726 -0.46567 -0.580595 0.16299
446 0.149522 0.15214 0.101671 0.311768 -3.50593 -0.120557 -0.158164 0.266716
447 0.152616 0.0921001 0.151305 0.165587 -3.50909 -0.105207 0.187143 -0.219679
448 0.0973851 0.140956 0.153138 5.12943 -3.49498 0.187008 0.232042 -0.44839
449 0.202866 0.103893 0.100792 0.411717 -3.49324 -0.378906 -0.303131 0.704078
452 0.202026 0.144361 0.151608 0.109754 -3.4997 -0.0372267 -0.450592 -0.10388
450 0.250869 0.152821 0.101758 0.317542 -3.50276 -0.152859 -0.134841 -0.359112
451 0.254599 0.0943248 0.149869 0.10576 -3.5067 -0.188641 0.024201 -0.0602662
453 0.305681 0.102886 0.0975502 0.475424 -3.48556 -0.536902 0.481788 0.220099
456 0.301251 0.1439 0.149684 0.302849 -3.5182 0.345523 0.227168 -0.106914
454 0.353576 0.15432 0.0974555 0.257407 -3.4837 -0.0777798 -0.115913 -0.256058
455 0.35632 0.0974092 0.146659 0.304466 -3.49751 -0.410147 -0.275924 0.191437
457 0.409431 0.104159 0.0973776 0.588378 -3.46122 -0.689077 -0.426778 0.0697566
460 0.406276 0.143704 0.147342 0.185045 -3.50092 -0.110238 0.497454 0.122517
458 0.4602 0.15233 0.0994603 4.80653 -3.47479 -0.44362 0.0106049 -0.270273
459 0.458106 0.0929022 0.147377 5.128 -3.50062 -0.414511 0.226228 0.262044
461 0.507813 0.0989604 0.0991436 5.16525 -3.46847 -0.533978 0.567579 0.732036
464 0.506001 0.144756 0.150115 0.38854 -3.50567 -0.0111725 -0.606783 -0.610469
463 0.553549 0.093086 0.149778 0.177257 -3.51239 -0.0875957 -0.0910195 0.322848
462 0.552359 0.155324 0.0960435 5.41959 -3.46594 -0.0188174 -1.158 0.559651
465 0.60062 0.0979702 0.09862 0.168074 -3.47527 -0.393471 0.5228 0.290236
468 0.601707 0.142095 0.145991 5.33614 -3.49393 -0.231877 0.339627 1.15612
466 0.649167 0.147574 0.0988097 5.07293 -3.49175 0.403007 0.83884 0.149265
467 0.648582 0.0907562 0.146768 5.35935 -3.49102 0.0620607 -0.163344 1.0648
469 0.69819 0.0964662 0.100584 5.84613 -3.47212 0.497121 0.216996 -0.328185
472 0.699136 0.139907 0.151624 5.02848 -3.49317 -0.124923 -0.048875 -0.631517
471 0.750673 0.0887159 0.153167 5.06807 -3.48786 -0.582128 -0.374219 -0.711466
470 0.75304 0.150241 0.100964 4.95366 -3.48299 -0.981529 -0.742497 -0.282752
473 0.796168 0.096976 0.100789 5.23986 -3.49057 0.0222278 -0.453893 -0.100399
476 0.795137 0.137677 0.150193 4.67898 -3.48553 1.00268 0.393983 0.0598418
474 0.847692 0.147073 0.101105 5.35732 -3.50844 -0.124751 -0.116662 0.325129
475 0.848274 0.0898631 0.150842 0.102801 -3.49846 0.0571046 0.335833 0.582262
477 0.897628 0.0975411 0.101211 0.166115 -3.49528 -0.0797003 -0.327103 0.173874
441 -0.00162151 0.0948844 0.102093 0.414686 -3.49133 -0.337762 0.312994 0.020937
480 0.896896 0.140874 0.152365 0.213675 -3.51105 0.146934 -0.322317 -0.249469
478 0.951625 0.145688 0.103331 5.21398 -3.45432 -1.0283 0.313956 -0.137333
479 0.950125 0.0915068 0.154291 0.526368 -3.50216 -0.182888 -0.429813 -1.21939
483 0.0508423 0.194608 0.149903 5.33143 -3.47407 -0.556279 -0.891133 0.947232
481 0.000507754 0.198271 0.103402 0.681584 -3.50691 -0.757851 0.0930948 -0.227752
485 0.101929 0.202513 0.102843 5.24274 -3.46379 -0.986469 -0.95823 -0.761028
487 0.151809 0.190181 0.152288 5.18038 -3.47782 -0.603004 0.846221 -0.0994538
489 0.199316 0.20109 0.0988832 4.92959 -3.49549 -0.120862 -0.42942 0.311935
492 0.200382 0.240525 0.14734 0.671693 -3.50849 -0.646381 0.439082 1.00339
491 0.251068 0.194104 0.151579 0.170876 -3.50716 0.126991 -0.207391 -0.451805
493 0.299229 0.203689 0.102108 0.434271 -3.48289 -0.0191432 -0.473539 -1.03929
490 0.248224 0.252221 0.102911 0.363915 -3.46581 0.27561 -0.528179 -1.20186
496 0.303372 0.243193 0.150831 0.177984 -3.48286 -0.46397 -0.106885 -0.0222387
495 0.352897 0.19381 0.146339 0.432266 -3.4835 0.403982 -0.334154 0.540326
497 0.407293 0.201955 0.0977742 5.06653 -3.47406 -0.414007 0.159072 0.333713
494 0.350774 0.252755 0.100049 0.389236 -3.47732 0.180696 -0.894864 -0.267258
500 0.405142 0.240465 0.14894 0.355665 -3.51084 0.12444 0.531625 -0.212
499 0.457341 0.19326 0.146649 4.93935 -3.50364 -0.417263 -0.0594083 0.379289
501 0.503652 0.2049 0.0983933 0.474654 -3.48829 0.447328 -0.353897 -0.227478
498 0.458421 0.254162 0.0980733 4.94236 -3.48049 -0.746724 -0.220077 -0.021577
504 0.505089 0.240775 0.14796 5.0042 -3.48967 0.0244862 0.912535 0.143818
503 0.553141 0.192966 0.149268 5.51067 -3.50515 0.203972 -0.0453723 -0.0853564
505 0.600419 0.200876 0.0978481 5.38907 -3.49419 0.44402 0.319044 0.189437
502 0.554525 0.253123 0.0966393 0.250273 -3.51118 -0.129854 -0.408825 0.165964
507 0.649529 0.192439 0.149904 5.2435 -3.50927 0.448721 -0.290054 -0.348877
506 0.652056 0.249279 0.100973 5.11854 -3.4911 0.112104 0.240554 -0.220597