ITEM: TIMESTEP
2500
ITEM: NUMBER OF ATOMS
4000
ITEM: BOX BOUNDS pp pp pp
2.1702958119787548e+00 3.3929704188021176e+01
-1.1508244819721192e+00 3.7250824481971989e+01
-1.1765654720635581e+00 3.7276565472063453e+01
ITEM: ATOMS id xs ys zs c_csym c_peratom fx fy fz
3 0.0451083 1.00494 0.0519291 5.19982 -3.48678 0.313114 0.24699 0.291752
8 0.0929772 0.0550994 0.0489877 4.93469 -3.48537 0.382175 -0.25448 0.57555
7 0.143594 1.00057 0.050824 0.258697 -3.49655 -0.205915 -0.110132 0.332658
6 0.146717 0.0574097 0.00276461 0.266585 -3.50983 0.162536 0.716236 -0.112655
12 0.194263 0.0483969 0.0537324 0.384826 -3.49935 -0.633637 1.17247 -0.216353
16 0.29277 0.0472776 0.0592737 5.09762 -3.45533 -0.91814 0.168711 -0.706385
10 0.243019 0.0542517 0.00198208 5.53887 -3.47339 0.451367 0.441701 0.57564
20 0.387659 0.0425077 0.058007 4.74202 -3.48305 -0.0347478 0.542939 -0.154817
14 0.34244 0.0493996 0.00446583 5.00963 -3.50649 -0.31332 0.212075 0.305416
17 0.390896 -0.00112861 1.00684 0.388823 -3.50001 -0.428994 -0.0625165 -0.301433
19 0.446056 -0.00274644 0.0541449 0.706922 -3.5038 0.527618 0.842508 -0.635142
18 0.435839 0.0485301 0.00550464 1.02645 -3.48291 0.389633 0.089192 0.31526
24 0.498857 0.052915 0.0480123 0.750541 -3.48858 -0.469021 -0.481479 0.779968
23 0.558342 0.00887121 0.0460996 0.156589 -3.5139 0.0594121 0.0972332 0.00447106
21 0.496477 0.00623573 0.998858 0.32737 -3.51425 -0.0715962 -0.16932 0.506205
22 0.546713 0.0564162 0.00103769 0.363423 -3.49299 0.536722 -0.05692 -0.440806
28 0.612156 0.0593796 0.0465433 0.610846 -3.50455 -0.290064 0.00491635 0.171898
25 0.610399 0.0167875 0.997522 0.636718 -3.50791 -0.294404 -0.0524074 -0.407887
26 0.659612 0.0656609 0.993292 0.597701 -3.46102 -0.191169 0.0775852 0.673407
27 0.665213 0.0125127 0.043326 0.204213 -3.50145 0.21269 -0.165082 -0.276071
32 0.712949 0.0636309 0.0410678 0.350407 -3.50002 -0.186905 0.123114 0.204498
29 0.713696 0.0185124 0.991668 0.387411 -3.50186 0.275533 0.69356 0.0426477
31 0.760023 0.0139463 0.0418652 0.431717 -3.49461 0.614185 0.191276 0.216641
30 0.762835 0.0721757 0.992702 0.791933 -3.46283 0.0901717 -0.621632 -0.293876
36 0.807586 0.0678031 0.0411884 5.28684 -3.48256 0.695452 -0.427581 0.720063
35 0.856694 0.0149348 0.0465123 4.89239 -3.47382 0.48974 -0.917519 -0.214646
40 0.907414 0.0642516 0.0454444 5.18334 -3.50164 0.0740569 -0.0933158 -0.1618
37 0.906357 0.0159712 0.997526 4.96911 -3.49986 0.51546 0.332589 0.223675
4 0.000751522 0.0618242 0.0515494 0.600548 -3.50399 0.251931 -0.44949 -0.41906
39 0.955397 0.00897494 0.0493369 5.39211 -3.49252 -0.573662 -0.157916 -0.364217
43 0.0505773 0.111208 0.0470548 5.42846 -3.51618 0.253229 -0.403965 -0.242328
44 0.00839876 0.163601 0.0408444 5.34453 -3.48958 0.0639808 0.692875 0.788493
47 0.14771 0.101864 0.0521342 0.434469 -3.49876 -0.157521 0.285899 -0.333145
48 0.103045 0.159444 0.0453956 0.202013 -3.47363 0.0832226 -0.246083 -0.0206189
46 0.152377 0.160444 -0.000685099 5.50672 -3.50751 0.107115 0.630649 -0.186745
49 0.196354 0.110942 0.00268329 4.81359 -3.4095 1.37602 -1.92159 -0.213702
52 0.197139 0.151876 0.0498149 5.35493 -3.48528 0.282232 0.336301 0.470226
51 0.24335 0.0981693 0.0526579 0.447492 -3.50118 0.200463 0.136038 0.236555
50 0.251498 0.158927 0.00334737 0.330041 -3.49676 -0.111108 -0.170823 -0.645802
56 0.297822 0.148645 0.050739 5.37151 -3.48876 -0.25674 0.0521531 0.478015
53 0.297013 0.104841 0.00409734 5.25836 -3.49298 -0.238534 -0.391453 -0.335012
54 0.347957 0.154017 -0.00109258 4.79942 -3.50878 -0.223687 0.160011 0.539323
55 0.340076 0.096597 0.0548117 5.64242 -3.51303 0.485766 -0.390128 0.102007
60 0.389422 0.14832 0.0542794 4.70412 -3.51264 0.355843 -0.710581 -0.274207
57 0.387617 0.0996359 0.00389451 5.17233 -3.51159 0.309467 0.404066 0.383235
58 0.43913 0.148591 0.003865 4.91245 -3.49934 -0.010495 0.432336 -0.270081
59 0.435326 0.0959725 0.0563992 1.68499 -3.46189 -0.215868 -0.576535 -0.0683775
64 0.487159 0.142624 0.0523013 1.37839 -3.46512 0.0592783 0.11401 0.68186
61 0.484464 0.0996349 0.00659067 1.90593 -3.46197 0.397882 -0.448294 -0.58659
63 0.551243 0.103393 0.0494516 0.770159 -3.47262 -0.791218 -1.3378 0.688617
62 0.53972 0.150819 1.00433 0.865756 -3.48071 -0.411572 -0.169046 -0.00721962
68 0.594882 0.150805 0.0491891 0.336555 -3.45835 0.458328 0.28424 0.0050344
65 0.599968 0.103349 0.999407 1.1842 -3.48138 -0.136617 1.02766 -0.248992
67 0.655371 0.113525 0.0433655 1.40332 -3.4888 0.302503 -0.592021 0.453691
66 0.645718 0.157994 -0.00251017 0.368539 -3.51097 0.202242 0.141908 0.0748102
72 0.707341 0.161956 0.0462928 0.728986 -3.46434 -1.91356 -1.00657 0.953423
69 0.706818 0.114046 0.995102 0.297924 -3.4916 -0.0877674 0.949376 -0.245274
71 0.762319 0.117095 0.0407949 0.902376 -3.47049 0.0433247 0.154782 0.788479
76 0.808136 0.167756 0.0449197 0.520658 -3.47015 -0.35933 -0.0390408 -0.771323
75 0.861589 0.117639 0.0412527 0.450665 -3.47681 0.298999 0.418573 -0.0314333
80 0.915916 0.170357 0.0416474 4.67018 -3.48011 -0.245129 0.206877 -0.295555
79 0.960344 0.117073 0.0441001 5.48792 -3.5096 -0.777484 -0.536925 0.362848
83 0.0577709 0.214159 0.0436029 5.29243 -3.51837 0.0862038 -0.181665 0.299062
87 0.155189 0.208558 0.0489233 0.195493 -3.50442 -0.512516 0.0290527 -0.227778
91 0.250364 0.201813 0.0503073 5.29408 -3.48698 0.117909 0.402496 0.157348
89 0.203703 0.210509 -0.000921829 0.154806 -3.49921 0.36238 0.536427 0.863653
95 0.343415 0.197213 0.0519157 4.66321 -3.48433 0.451494 0.504277 0.198511
93 0.305301 0.211144 0.00161601 4.81667 -3.48391 -0.812087 -0.705478 -0.182114
100 0.396366 0.245738 0.0506879 4.96709 -3.46846 -0.331096 1.00324 0.483031
97 0.399314 0.20225 0.000800615 5.21486 -3.49474 -0.444101 0.413772 0.0796394
99 0.44172 0.194697 0.0543584 5.28939 -3.51479 0.0675464 0.015596 -0.0128005
104 0.489301 0.247186 0.0503284 4.84474 -3.49733 0.45503 0.00866538 0.907316
101 0.48771 0.200273 0.00285779 4.97783 -3.48917 0.49618 -0.022225 0.144042
98 0.443886 0.257167 0.00171511 4.94737 -3.50162 0.334815 -0.57298 -0.145162
103 0.534284 0.193071 0.054127 4.61527 -3.47632 0.25803 0.498043 0.398152
108 0.587243 0.246492 0.0547345 0.620936 -3.48201 -0.475513 0.0692809 0.431495
105 0.588295 0.201906 0.00590278 1.106 -3.4966 -0.36765 0.239086 -0.524301
107 0.643932 0.200645 0.0490993 0.565554 -3.46605 0.154512 0.487622 0.99921
109 0.694622 0.210916 0.000122463 0.294838 -3.518 -0.125346 -0.226606 -0.361887
111 0.748638 0.212005 0.0484328 0.560025 -3.41237 1.54932 0.245644 -1.85917
115 0.860281 0.217096 0.0488444 1.08007 -3.4814 0.0299508 0.180098 -1.72464
119 0.966629 0.21802 0.0394878 4.7505 -3.49009 -0.229816 0.0893141 -0.00188714
84 0.0182481 0.268207 0.0408374 4.26949 -3.50239 -0.404904 0.0206952 0.0405133
123 0.0666982 0.316804 0.0434387 4.6637 -3.48196 0.269365 -0.113588 -0.200394
88 0.111184 0.261952 0.0442437 0.342078 -3.49733 -0.484606 0.461709 0.789743
127 0.159009 0.312994 0.0433748 5.05677 -3.48298 0.461553 -0.34182 0.573522
92 0.205504 0.257458 0.0512507 4.83791 -3.49308 0.116413 -0.322026 -1.01351
131 0.255667 0.308612 0.0480279 5.43618 -3.51577 0.0427278 -0.165438 0.159292
96 0.303765 0.254095 0.0549482 4.83552 -3.48695 -0.498489 -0.363464 -1.2106
135 0.347903 0.304692 0.0484573 4.44358 -3.47443 0.733099 -0.597764 0.78221
94 0.353238 0.259047 0.000662255 5.29922 -3.47958 -0.721914 -0.325157 -0.281857
133 0.301868 0.31366 0.997295 4.96671 -3.47105 1.01212 -0.330454 0.262206
137 0.399348 0.308615 0.00305475 0.284444 -3.49997 0.0541916 -0.219908 -0.991567
139 0.447378 0.300366 0.050673 5.17392 -3.49496 -0.707612 -0.0171086 0.500133
141 0.495001 0.306382 0.00326738 5.07939 -3.50153 -0.20281 0.0493866 -0.363278
143 0.539043 0.299622 0.0509308 5.3014 -3.4738 -0.0223198 -0.0622807 1.6923
102 0.538108 0.252682 0.00405262 5.44306 -3.49497 0.303977 0.0714041 -0.381904
145 0.585164 0.304546 0.00349183 4.84912 -3.50706 0.413896 -0.279127 -0.234131
106 0.632901 0.254567 0.00127335 0.764988 -3.48909 0.182875 0.180005 0.0758806
147 0.633232 0.29651 0.0561979 0.681004 -3.48087 -0.29675 0.0722964 -0.498291
112 0.684717 0.25355 0.0506315 1.49898 -3.47631 1.76543 -0.065822 -0.314076
116 0.801392 0.262319 0.0478054 0.24351 -3.49443 0.0266558 -0.812787 -0.131671
151 0.740903 0.303184 0.0497127 0.209083 -3.51516 -0.369991 -0.0853508 0.324747
120 0.907093 0.265059 0.0446686 0.440067 -3.51299 0.879972 0.722774 -0.139942
155 0.848389 0.30997 0.0444865 0.361184 -3.51451 0.386288 0.0924502 0.112696
159 0.964184 0.314915 0.0453474 0.533182 -3.50943 -0.658501 -0.33792 -0.218418
163 0.0633697 0.41462 0.0470393 0.444498 -3.49028 0.10656 -0.0173154 -0.00156449
124 0.0137621 0.362771 0.0481113 0.505489 -3.48939 -0.154788 0.243299 -0.913366
128 0.115462 0.365155 0.0432191 5.0724 -3.51852 -0.148065 0.249824 0.115652
167 0.162268 0.416102 0.046433 0.439801 -3.50146 0.0557494 -0.311561 0.0424768
165 0.114043 0.417928 0.997491 0.368843 -3.50156 -0.152718 0.540321 -0.417497
132 0.212562 0.362836 0.0453767 0.356639 -3.49639 -0.0389827 -0.206391 0.32288
171 0.256345 0.413299 0.0482381 5.2614 -3.47936 0.659546 -0.0270955 0.0506482
136 0.30675 0.356607 0.0474388 0.543655 -3.45936 -0.300056 1.22493 1.08481
175 0.349395 0.40932 0.0496592 5.21869 -3.47434 1.19577 -0.301637 -0.490579
140 0.398486 0.352332 0.0538055 5.22583 -3.46463 0.110122 0.486902 -0.641602
134 0.357555 0.363536 1.00078 5.12778 -3.512 -0.352816 -0.214617 -0.398683
179 0.449731 0.403226 0.0524831 5.42042 -3.50003 -0.670159 0.175284 0.261742
138 0.447772 0.355907 1.00378 4.85621 -3.49725 0.235298 0.677992 -0.174718
144 0.492243 0.351675 0.0543442 5.50427 -3.5029 0.032217 -0.563927 -0.41454
177 0.404401 0.413474 0.000852448 5.20787 -3.49204 0.245188 0.00405773 0.54697
181 0.491705 0.410231 0.00330735 5.2849 -3.47184 1.0513 -0.260699 -0.398269
183 0.540371 0.398201 0.0559178 5.20938 -3.49579 0.360243 0.852542 -0.11638
148 0.587151 0.347358 0.0552692 5.22679 -3.50801 0.213135 0.337016 -0.244993
142 0.540761 0.35556 0.00243793 4.79968 -3.50533 0.0178155 0.647741 0.551909
185 0.588167 0.409381 0.00295585 5.37702 -3.49592 0.289009 -0.461683 0.498964
146 0.6377 0.353514 0.00471422 5.22677 -3.47206 -0.23767 0.299881 0.188449
187 0.637352 0.396571 0.0538313 0.501995 -3.50407 -0.267786 0.550549 0.300148
152 0.681737 0.347702 0.0546798 0.706073 -3.49161 0.526122 -0.88554 0.547499
189 0.68533 0.405081 0.00585427 0.317147 -3.46991 -1.20473 0.179695 0.288338
191 0.727886 0.397537 0.0551576 2.16622 -3.43062 2.15869 -0.640415 1.15727
156 0.790485 0.354814 0.0518596 0.368828 -3.50663 -0.280529 -0.190326 0.113809
160 0.903095 0.358409 0.0468569 0.256717 -3.49729 -0.257504 -0.713545 -0.387273
195 0.845798 0.399197 0.0535832 0.66107 -3.45345 -0.447747 0.386673 -0.747794
199 0.952158 0.405613 0.0490664 0.262158 -3.52044 0.273771 0.475602 0.0601559
164 0.00216434 0.459338 0.0465641 0.617323 -3.50801 0.339282 -0.274473 0.580547
168 0.110898 0.465844 0.0447017 0.567375 -3.49569 0.216755 0.0638031 0.5455
172 0.210918 0.464926 0.045866 0.198225 -3.51196 0.344091 0.289565 0.0898845
176 0.311762 0.462514 0.0448056 5.39796 -3.47113 -1.17862 0.809278 -0.177631
180 0.40575 0.461068 0.048588 5.14438 -3.48579 -0.25721 -0.223179 0.0571982
184 0.498693 0.454873 0.0524716 0.311391 -3.49237 -0.372691 -0.385512 -0.344041
178 0.452646 0.464797 0.997688 0.388009 -3.50075 0.269167 0.195402 0.459259
188 0.593251 0.450241 0.0564672 5.51944 -3.47129 -0.709859 0.126209 0.337311
223 0.542972 0.503885 0.0528369 4.71432 -3.48579 0.969114 0.545887 0.399325
225 0.595177 0.510382 0.00419554 5.16141 -3.51681 0.383406 0.276333 0.307387
182 0.545693 0.46182 0.00246876 5.10857 -3.50191 0.0760254 -0.40574 0.110602
227 0.642373 0.502239 0.058405 5.15185 -3.49492 -0.157084 0.110186 -0.0567885
192 0.687186 0.448498 0.0585165 0.294498 -3.47391 -0.576143 -0.109526 -0.928262
186 0.639557 0.458025 0.0114804 5.14958 -3.47312 0.591547 -0.085322 -1.52651
229 0.693532 0.503543 0.00746927 5.3007 -3.51712 -0.0492112 0.454613 -0.130339
196 0.787889 0.443027 0.0586972 1.19628 -3.51609 -0.283221 -0.0344997 -0.119407
231 0.737561 0.494825 0.058689 0.319949 -3.50233 0.219966 0.401603 -0.339819
200 0.894254 0.452758 0.0535796 0.209133 -3.52394 -0.0858937 -0.175837 -0.24228
203 0.054643 0.509116 0.0503464 0.283414 -3.50791 -0.10942 -0.0942895 -0.48345
207 0.160583 0.513376 0.0457855 0.462902 -3.48844 0.0691813 0.469074 -0.153372
208 0.104991 0.558554 0.0459515 0.618851 -3.51614 -0.0325821 0.150012 0.147288
211 0.259289 0.518208 0.0393336 5.06372 -3.44897 0.589293 -0.534795 1.3566
212 0.207063 0.566881 0.0405026 1.00399 -3.47549 -0.089393 0.0525079 0.838417
209 0.209009 0.523778 0.994327 0.94776 -3.48597 -0.690053 -0.24811 -0.304229
215 0.358183 0.513412 0.0445513 0.0797274 -3.50964 -0.199018 -0.241517 0.045982
216 0.312282 0.567124 0.040336 0.81465 -3.49212 -0.303081 -0.554994 0.712777
220 0.407506 0.564283 0.0447341 5.14613 -3.47656 -0.265887 0.221841 0.901301
219 0.460514 0.510279 0.0491162 5.63054 -3.46993 -1.45019 -0.272803 -0.485343
224 0.505021 0.560442 0.0483556 5.75798 -3.48807 -0.353494 0.38095 0.389261
221 0.504906 0.518745 0.997348 4.85108 -3.46625 -0.717566 -0.921866 0.619481
218 0.460897 0.571791 0.99593 5.25431 -3.49177 -0.264891 -0.358778 0.139036
228 0.600689 0.556111 0.054572 5.31113 -3.49264 -0.399098 -0.262199 -0.328474
222 0.554257 0.564202 1.00067 5.48293 -3.47597 0.334267 -0.302002 -0.41394
226 0.651263 0.559663 1.00456 5.52752 -3.48704 -0.470139 0.0191937 -0.154511
232 0.695002 0.551382 0.0554638 0.165837 -3.50163 -0.285194 -0.22311 0.224515
236 0.788557 0.545897 0.0585671 5.43541 -3.50253 -0.0694094 0.152855 -0.627435
235 0.834734 0.495555 0.0560919 0.957411 -3.45183 0.186174 -0.0717426 0.701216
240 0.886653 0.542261 0.057532 1.50753 -3.49789 -0.215811 0.59457 0.245037
239 0.944059 0.501524 0.0554479 0.353668 -3.49579 0.340161 0.112688 -0.570457
204 0.996325 0.54992 0.0521574 0.292834 -3.49717 -0.917813 0.502472 -0.511913
243 0.0438554 0.599018 0.0550617 0.44617 -3.49109 0.236659 0.498614 -0.431602
248 0.0926723 0.651162 0.053573 0.148049 -3.5021 -0.0962953 -0.422278 -0.13673
247 0.152182 0.609627 0.0467458 0.205793 -3.48262 -0.460928 -0.15261 0.173106
252 0.201152 0.663806 0.0455895 0.993997 -3.49378 -0.105472 -1.0306 0.127809
251 0.258318 0.615731 0.0454171 0.489669 -3.47108 0.8465 -0.634568 -0.536269
256 0.311399 0.668677 0.0419615 1.33458 -3.49291 0.0400479 -0.272508 0.514146
255 0.359616 0.616723 0.0470906 0.40517 -3.49141 0.406938 -0.170101 -0.835077
260 0.409034 0.665859 0.0472358 0.242573 -3.51417 0.0897214 0.28275 -0.559736
259 0.453433 0.614311 0.047357 5.12258 -3.47438 0.988321 0.0402899 -0.561518
264 0.506296 0.661692 0.0501901 0.472824 -3.48558 0.203578 -0.285933 -1.10591
263 0.555008 0.607996 0.0501032 5.28747 -3.50543 -0.354338 0.46225 0.154109
265 0.601069 0.614527 1.00234 4.71775 -3.50484 0.681144 -0.0624087 -0.402415
261 0.511746 0.619958 0.996328 5.06112 -3.48198 -0.732666 -0.509594 0.328403
262 0.562156 0.669297 0.997617 5.36141 -3.47919 -0.34963 -0.263503 0.523561
268 0.603752 0.658802 0.0526492 0.302157 -3.50055 -0.107606 -0.227312 -0.168593
267 0.651115 0.606404 0.0517152 5.00381 -3.51288 -0.270658 -0.0537542 0.458585
269 0.698404 0.610261 1.0041 5.49682 -3.50764 0.449721 0.0152641 0.0812943
272 0.701733 0.656233 0.0548084 5.06521 -3.503 -0.252699 -0.484753 -0.442974
271 0.743545 0.600501 0.056486 5.29276 -3.50114 0.00833632 0.113819 0.0471808
276 0.793427 0.6534 0.0549382 4.89458 -3.49896 0.203844 -0.515489 -0.0337354
275 0.839161 0.595886 0.0581853 5.46214 -3.49678 0.145383 0.122154 -0.432877
280 0.887152 0.648611 0.0555548 5.40208 -3.50797 0.530572 -0.880546 0.152827
244 0.986058 0.642307 0.0606474 5.3052 -3.46007 0.284585 0.387061 -1.38415
279 0.937809 0.595516 0.0533499 0.804161 -3.4623 -0.881529 -0.785727 0.361664
283 0.0317785 0.692642 0.0562821 4.44466 -3.47441 0.514572 0.442408 0.238727
287 0.140333 0.699812 0.0546251 0.679006 -3.48728 -0.0136923 0.424446 -0.495542
286 0.136526 0.751653 0.00553682 0.461899 -3.45347 -0.692994 -0.250108 -0.195168
291 0.253695 0.711215 0.0440883 0.310906 -3.49097 -0.659795 -0.369259 0.673163
292 0.191341 0.751249 0.0502274 0.382085 -3.50495 0.124024 0.38824 0.299266
289 0.191963 0.711052 1.00067 0.454454 -3.48788 0.158029 -0.499977 -0.405851
295 0.363978 0.719326 0.0442032 1.77996 -3.49119 -0.293669 -0.406529 -0.6497
299 0.461181 0.716293 0.0448614 5.48973 -3.49793 0.15529 -0.131244 0.693304
303 0.555965 0.709394 0.0488104 4.75758 -3.50221 0.659596 0.835806 -0.079466
305 0.614351 0.719572 1.00054 4.62185 -3.49623 -1.0935 -0.914914 -0.0384212
307 0.653724 0.706376 0.0523062 4.50703 -3.51204 0.112692 0.635972 -0.0543532
311 0.749008 0.704853 0.0532349 5.27358 -3.49323 -0.0331962 0.103573 -0.074659
315 0.845664 0.699777 0.0561045 0.313037 -3.46993 -0.228931 -0.382572 -0.548483
320 0.894039 0.748069 0.0549163 5.42604 -3.48413 -0.209754 0.347143 -0.301736
284 0.993229 0.746492 0.0540533 4.39536 -3.49479 -0.910059 0.136807 0.347094
319 0.940987 0.696794 0.0570368 5.29767 -3.50406 0.0301656 0.128318 0.00895083
288 0.0839209 0.742725 0.0601235 5.0981 -3.4818 0.232244 0.345491 -0.688469
323 0.0403622 0.79664 0.0518153 0.502659 -3.50305 0.144688 -0.0800708 0.563618
325 0.0882702 0.8011 0.0036042 0.252814 -3.51142 -0.144054 0.0306486 -0.133841
327 0.135235 0.79591 0.0564404 0.61839 -3.48602 0.00423321 -0.00548451 -0.32753
331 0.241909 0.801162 0.0522967 0.359774 -3.49914 0.180688 0.461571 -0.764586
329 0.182572 0.801449 0.00221499 0.9171 -3.48225 0.849576 -0.140152 0.541028
294 0.352368 0.766076 0.997578 0.254193 -3.49699 0.644263 0.194239 -0.179202
296 0.300851 0.75975 0.0459949 0.360676 -3.49977 0.645066 -0.0960361 -0.539247
333 0.297966 0.810089 0.999981 0.649025 -3.47736 -1.89548 0.120442 0.70241
335 0.350629 0.813001 0.0500386 1.20917 -3.46241 0.98588 -1.37899 -1.64708
300 0.416826 0.766348 0.0441761 1.77284 -3.4501 -0.925964 1.0996 -0.773103
339 0.465903 0.816121 0.0402303 1.38392 -3.46499 0.0752674 0.152246 0.918374
337 0.40203 0.817249 0.995436 0.572418 -3.48859 -0.156439 -0.654257 0.570067
308 0.604828 0.759716 0.0501336 4.82639 -3.49702 0.43148 0.13093 0.159853
304 0.512386 0.765121 0.0442411 5.16647 -3.50352 0.0575327 -0.294664 0.371094
343 0.563275 0.816021 0.0458013 4.92128 -3.49755 0.176217 -0.53912 -0.545883
341 0.515214 0.818487 0.994151 0.505628 -3.45834 0.791939 0.699337 -0.174437
345 0.615799 0.821361 0.994342 4.35093 -3.47289 -0.427189 -0.229194 0.0208646
312 0.699412 0.760105 0.0520379 5.09084 -3.4925 0.577152 -1.09057 -0.0462032
347 0.655698 0.808652 0.0501014 5.50209 -3.45433 0.0236925 0.937881 -0.194167
351 0.752117 0.806492 0.0502801 0.225562 -3.51772 -0.00850213 0.0788624 0.164445
316 0.798311 0.755169 0.0503258 5.02236 -3.4942 0.266928 -0.2531 0.850712
355 0.848419 0.80585 0.0517516 5.6187 -3.48015 0.40172 -0.764795 -0.108942
359 0.945765 0.80039 0.0527317 5.13719 -3.50808 -0.104233 -0.163238 -0.105306
363 0.04388 0.900896 0.0551047 0.288323 -3.50727 -0.23499 -0.184904 -0.585271
328 0.0884188 0.847359 0.0547662 4.9147 -3.51754 -0.0726552 -0.0897671 -0.331284
367 0.134259 0.897745 0.0556355 5.35769 -3.49167 0.54168 0.0522192 0.0630491
332 0.186678 0.848033 0.0514121 0.587807 -3.4853 -0.698235 -0.718495 1.45995
371 0.236893 0.899092 0.0572916 0.662244 -3.4823 0.392549 -1.23591 -0.393358
330 0.235881 0.85281 0.00433019 0.353154 -3.47098 0.252034 -0.0467365 0.425432
369 0.186308 0.901444 0.008048 4.65522 -3.50463 -0.384484 0.170428 -0.842557
336 0.295034 0.8536 0.0551596 0.549443 -3.48261 -0.931087 -0.409825 -0.915485
375 0.346175 0.897998 0.0520559 0.467514 -3.50226 -0.0914152 0.713608 0.0331823
373 0.288421 0.900759 0.00444246 0.460249 -3.4925 -0.22295 0.549696 -0.106904
334 0.345662 0.858411 1.00072 0.135714 -3.48551 0.133114 0.523353 -0.201035
340 0.406799 0.856194 0.0452603 0.661518 -3.48402 -0.37956 1.1993 1.35347
377 0.398912 0.908035 1.0001 0.298053 -3.47307 -0.196755 -0.659875 0.109256
379 0.458027 0.904741 0.0504996 0.71987 -3.48695 -0.393112 0.363456 -0.637845
344 0.516013 0.864519 0.0435344 0.866178 -3.4724 0.0774707 0.0482625 -0.216199
383 0.564396 0.915487 0.0445753 0.644207 -3.47774 0.265928 -0.376411 -0.0928815
381 0.505247 0.915111 0.998082 0.597341 -3.48598 0.231105 -0.658748 -0.904224
342 0.56246 0.870471 0.991848 0.774199 -3.50454 0.755532 -0.0956826 0.465462
348 0.615448 0.864317 0.0410287 4.82179 -3.51219 -0.505341 0.78333 0.339374
385 0.617768 0.918234 0.994388 0.584637 -3.50602 -0.127435 -0.413476 0.366892
387 0.667188 0.913557 0.0488022 4.65176 -3.45914 -0.496393 -0.0594459 -1.49943
352 0.710786 0.859862 0.0470669 4.99584 -3.46955 -0.747278 -0.0322563 0.440107
346 0.669997 0.870361 0.995517 4.615 -3.4732 -0.820364 -0.677915 -0.27325
389 0.713379 0.918673 0.994622 0.33573 -3.47744 0.271014 0.477065 0.0904607
391 0.761339 0.910256 0.0452338 0.348674 -3.48329 -0.202637 0.582042 0.467896
356 0.799656 0.858233 0.0535895 4.58863 -3.49079 0.683402 -0.245508 -0.691857
350 0.754166 0.867335 0.999624 5.14863 -3.45528 1.20689 -0.274302 -0.391284
393 0.810355 0.916964 0.995285 4.6291 -3.4928 -0.467569 -0.0151148 0.708209
360 0.898462 0.855779 0.0529414 0.468527 -3.51209 0.410487 -0.428054 -0.307031
395 0.854602 0.908484 0.0472072 5.25793 -3.48777 -0.499827 -0.170477 0.803953
324 0.995873 0.848942 0.0531861 5.42235 -3.49043 0.327034 1.21494 -0.0479495
399 0.950353 0.90444 0.0466719 5.37868 -3.49779 -0.0147517 0.0885934 1.24406
368 0.0968428 0.952036 0.0542495 5.20535 -3.48109 -0.846128 0.0382722 -0.0918644
366 0.141912 0.953241 0.00143388 5.3627 -3.49767 0.00638555 0.569287 0.731164
372 0.190644 0.947527 0.0535838 0.369375 -3.49737 -0.538987 0.218047 -0.0576545
11 0.238549 0.995199 0.0562325 5.42465 -3.48552 0.436028 0.901453 0.642818
376 0.288415 0.945345 0.0564196 0.385801 -3.47806 -0.12676 -0.403356 -0.335445
9 0.192665 0.00734598 0.00417641 0.365972 -3.49703 0.190721 -0.58183 -0.354169
13 0.288381 1.00435 0.0075707 1.15106 -3.48455 0.223126 -0.97399 -0.732557
370 0.236788 0.953647 0.00189041 0.840262 -3.47385 -0.324964 -0.204605 0.866986
15 0.338995 0.993407 0.0546295 0.783383 -3.46671 -0.149241 0.0933863 0.882293
374 0.342042 0.948959 0.00269524 0.693979 -3.49558 -0.441346 0.247004 0.373937
380 0.396892 0.948929 0.0554136 0.53924 -3.50938 -0.368603 -0.299849 -0.196403
378 0.447907 0.953498 1.00328 0.516142 -3.48174 -0.213919 0.809826 -0.223959
384 0.506996 0.955291 0.0464616 0.307418 -3.49462 -0.0184861 0.567106 -0.0622437
382 0.559664 0.965917 0.99803 0.393503 -3.52406 -0.165526 -0.0825548 -0.307378
388 0.61924 0.963338 0.0413906 1.29685 -3.48675 -0.188515 0.00298079 0.299477
392 0.71607 0.961841 0.0417067 0.500986 -3.49963 -0.465383 0.420364 0.614685
396 0.81251 0.962579 0.0452589 4.73795 -3.49378 -0.410556 0.240013 0.876983
390 0.767213 0.970632 0.99433 4.80831 -3.45489 -0.997145 -0.705535 0.630256
400 0.903123 0.955927 0.0518852 5.07928 -3.46368 0.432961 0.445037 -1.21428
394 0.861948 0.964264 0.999594 5.02122 -3.48446 -0.397432 0.990671 0.275819
364 -0.00249848 0.955583 0.0505355 5.00301 -3.51964 0.318427 -0.308205 0.172039
402 0.044797 0.049085 0.104995 5.24899 -3.44729 -0.0973629 0.428399 -1.82937
408 0.0878903 0.0424027 0.150236 5.67532 -3.44749 0.739933 -0.219093 0.709505
405 0.0906741 0.997101 0.101508 4.65506 -3.50969 -0.0622242 -0.34516 0.241719
406 0.141382 0.0434629 0.100725 5.10495 -3.50487 -0.358033 0.466934 0.117142
412 0.184188 0.0375558 0.153195 0.243381 -3.51516 0.103954 0.188189 0.160728
410 0.23467 0.0455617 0.106567 0.993371 -3.4297 1.53503 -1.50216 -1.01485
416 0.281902 0.0313734 0.157701 4.92321 -3.46821 0.458296 0.797457 -0.370046
414 0.334001 0.0395984 0.109324 2.04298 -3.44356 0.347773 -0.302525 -0.333976
420 0.399323 0.0351997 0.157654 1.55243 -3.48354 -0.735934 0.489891 -0.994247
418 0.451409 0.0430407 0.102603 0.65661 -3.50296 -0.625965 0.027087 -0.0161654
424 0.504031 0.043673 0.149802 0.209556 -3.51476 0.119325 0.000486859 -0.333026
421 0.509892 0.000418647 0.0955665 0.639624 -3.47117 -0.849309 0.273405 0.329447
422 0.555633 0.05041 0.0989726 0.319514 -3.49375 0.373477 0.42171 -0.550093
425 0.616297 0.00849998 0.0932899 0.495998 -3.48938 -0.0851411 0.0394498 -0.0182265
428 0.615602 0.0526224 0.145734 0.32567 -3.50463 -0.415125 -0.361284 -0.304785
426 0.668298 0.0580273 0.0942798 0.718363 -3.49407 -0.43171 -0.382368 0.163791
427 0.668784 0.00518267 0.141789 4.80086 -3.47274 -0.549499 0.690285 0.951439
429 0.715992 0.00838366 0.0922748 4.84361 -3.51233 0.0491448 -0.489901 -0.419795
432 0.718605 0.0540123 0.142014 5.03065 -3.47849 -0.677835 0.564732 1.0112
430 0.761446 0.0602082 0.0922955 5.28085 -3.50316 0.277893 0.459847 0.340255
431 0.757997 0.00402571 0.145943 5.16086 -3.49274 0.110571 -0.862232 -1.1646
436 0.810627 0.0518938 0.144343 0.252531 -3.50988 -0.226151 0.216122 -0.081078
434 0.860902 0.0581248 0.0960085 5.1575 -3.49302 -0.655081 0.0413301 -0.379467
404 -0.00589243 0.0449914 0.148032 0.352306 -3.47583 -0.428544 -0.148178 0.635267
401 0.995743 1.0003 0.10235 0.249387 -3.50442 0.0536695 -0.387472 -0.277256
440 0.902029 0.0511603 0.147393 0.417021 -3.49712 -0.0118417 -0.819588 -0.0496074
438 0.949164 0.0520952 0.0977954 5.0698 -3.508 0.585165 0.752595 -0.0900425
442 0.0556305 0.155515 0.093674 5.29008 -3.49053 -0.939345 -0.174161 0.272097
443 0.0413258 0.0960371 0.149225 4.98759 -3.49371 0.802393 0.275332 0.140593
444 0.0037022 0.150949 0.145234 5.45199 -3.48389 -0.482722 0.0981533 -0.0640138
445 0.0952434 0.101099 0.0969687 0.460973 -3.48728 -0.0119151 -0.489748 0.387116
446 0.146971 0.151789 0.0993614 5.14178 -3.51251 0.137067 -0.676022 -0.260748
447 0.140872 0.0925631 0.146969 0.477039 -3.45462 -0.596824 -0.561533 1.05029
448 0.0958704 0.144372 0.146174 5.5443 -3.49485 -0.0291734 0.202657 0.339224
449 0.188104 0.0947006 0.104471 5.04542 -3.43825 1.29224 0.33573 -1.4474
452 0.193481 0.142871 0.148238 5.07831 -3.49551 -0.0510457 0.0296669 0.674819
450 0.246828 0.145087 0.101465 0.36927 -3.48795 -0.828389 -0.165005 -0.277219
451 0.241086 0.0862119 0.153172 0.55101 -3.4714 -0.806653 0.329283 0.785227
453 0.292176 0.096034 0.10546 5.19319 -3.47191 -0.293185 -1.30893 -0.338396
456 0.289498 0.136132 0.153294 0.14846 -3.46604 -0.0272688 -0.0456949 0.45297
454 0.344609 0.140414 0.10529 5.41404 -3.48675 -0.201571 -0.0765651 -0.188541
455 0.33674 0.0818684 0.160195 4.83685 -3.50128 -0.207462 0.0679886 -0.426425
457 0.386654 0.0852258 0.108649 4.15763 -3.49227 0.197423 0.0868776 -0.149512
460 0.387964 0.129757 0.157514 1.55645 -3.5191 -0.186626 0.218847 0.121262
458 0.43718 0.135778 0.106489 4.19377 -3.47161 -0.0949379 0.129067 -0.120731
459 0.447904 0.0880631 0.153036 0.297082 -3.5167 -0.349943 -0.261985 0.147124
461 0.499167 0.0945505 0.101457 0.254222 -3.50507 -0.536866 -0.22327 0.0713972
464 0.494499 0.138107 0.155084 0.409087 -3.50951 0.17134 -0.46723 -0.105656
463 0.554879 0.0931333 0.148164 0.165372 -3.52329 -0.112793 0.207681 0.0622102
462 0.546889 0.141994 0.101645 0.265886 -3.5042 0.278428 0.270328 0.184652
465 0.608682 0.101699 0.0972526 0.330763 -3.52025 -0.0606023 0.00816223 -0.148255
468 0.601876 0.143953 0.150514 0.289858 -3.51387 0.0997674 0.805468 -0.402606
466 0.652292 0.154827 0.101284 1.04361 -3.49326 0.75807 -0.438949 -1.02362
467 0.663015 0.101508 0.144379 0.336263 -3.51556 0.189988 0.364716 -0.308215
469 0.710247 0.109262 0.0901538 0.929962 -3.48601 0.183321 0.223855 0.423946
472 0.709909 0.154576 0.143119 0.385513 -3.49729 -0.0914452 -0.498454 0.322263
471 0.763914 0.105554 0.144633 0.384411 -3.47631 0.561196 0.024479 -1.2729
470 0.76096 0.158219 0.0979476 1.00817 -3.4632 -0.423037 0.398787 -1.61759
473 0.813156 0.110248 0.093092 0.509286 -3.49462 0.0570891 0.282213 0.312693
476 0.811769 0.160265 0.141418 4.5655 -3.46778 1.11874 -1.34564 -0.116486
474 0.861995 0.162295 0.086692 4.67768 -3.46111 0.439744 0.289465 1.16369
475 0.857232 0.103848 0.14459 0.212037 -3.50923 -0.00258554 0.209308 -0.256287
477 0.908443 0.108033 0.0938294 5.16019 -3.49458 0.0338304 0.146803 -0.315643
441 0.00122008 0.105425 0.0976337 0.145294 -3.45969 0.0244838 0.140212 -0.321211
480 0.905481 0.153926 0.137771 4.60822 -3.49316 -0.0756231 0.449477 1.22531
478 0.957436 0.161339 0.0935749 5.44087 -3.50398 0.302785 -0.302908 -0.15766
479 0.95415 0.100929 0.144826 5.35256 -3.51145 -0.621517 -0.173845 0.355352
483 0.0546564 0.198672 0.144637 5.38707 -3.51005 -0.624456 0.0786872 0.416021
481 0.00796274 0.208474 0.0932707 4.90387 -3.51562 0.261358 -0.252616 -0.118317
485 0.104794 0.201041 0.0954758 5.21718 -3.472 -0.10934 1.84406 0.686894
487 0.14815 0.198317 0.147594 5.23607 -3.48361 0.0808089 -0.839186 0.0286023
489 0.197431 0.198527 0.0967215 0.463252 -3.47966 0.564629 0.0343419 0.49739
492 0.199217 0.243683 0.145065 0.58522 -3.49679 0.506404 -0.233029 0.532748
491 0.244925 0.191821 0.149917 4.94741 -3.49958 -0.47096 -0.489102 -0.137815
493 0.2939 0.191703 0.103393 0.462362 -3.49822 0.50738 0.538277 -0.572551
490 0.251117 0.248739 0.0992023 0.191524 -3.49282 0.0346696 -0.378493 0.130195
496 0.296576 0.238065 0.15216 0.364404 -3.51444 0.0201264 0.118312 -0.0570956
495 0.339966 0.182198 0.152633 0.65352 -3.48207 0.535127 0.955036 0.700872
497 0.391779 0.191969 0.104589 5.23122 -3.51598 0.208555 -0.279741 -0.00950153
494 0.346033 0.241725 0.103837 5.52101 -3.48869 -0.0459403 0.739704 0.150843
500 0.39447 0.237374 0.154332 4.90814 -3.46602 -0.12648 -0.498323 -0.0332048
499 0.435188 0.180275 0.156245 4.18704 -3.47825 -0.0213099 0.449894 0.296821
501 0.488405 0.182246 0.10728 5.11461 -3.49086 -0.234388 0.993034 -0.193801
498 0.44438 0.240908 0.101287 5.14559 -3.48489 -0.143117 -0.293735 0.781534
504 0.483235 0.232387 0.158037 4.79494 -3.46856 -0.110713 -0.218151 -0.639269
503 0.543213 0.187963 0.15197 0.195396 -3.49824 0.562707 -0.356052 0.626118
505 0.594868 0.19506 0.101281 0.185549 -3.49065 -0.738136 -0.589369 0.754485
502 0.53296 0.238218 0.107146 4.68393 -3.45127 0.131987 0.157872 -0.31681
507 0.653117 0.198072 0.14931 0.296766 -3.51354 -0.471732 -0.38225 0.0724522
506 0.639666 0.245439 0.104888 0.778661 -3.47206 0.112795 -0.178131 -1.16215
508 0.590034 0.240266 0.153288 0.278333 -3.49387 0.0215777 -0.112529 -0.341534