ITEM: TIMESTEP
500
ITEM: NUMBER OF ATOMS
4000
ITEM: BOX BOUNDS pp pp pp
3.5547247620490219e-01 3.5744527523795028e+01
-2.6905701120915637e-01 3.6369057011209080e+01
-2.7590211454679547e-01 3.6375902114546861e+01
ITEM: ATOMS id xs ys zs c_csym c_peratom fx fy fz
2 0.0512112 0.0537275 -0.000163659 0.321578 -3.51635 0.142302 -0.464798 -0.0538963
4 1.00245 0.0522242 0.0536048 0.693391 -3.5119 -0.204705 -0.164655 -0.670133
8 0.0998435 0.0484543 0.0507432 0.479036 -3.48657 0.653431 0.453441 -0.420544
12 0.203356 0.0487805 0.0555062 0.583284 -3.48742 -0.291534 0.128857 -0.704753
16 0.30118 0.0500565 0.0546561 0.334124 -3.5079 -0.693367 -0.253252 -0.711368
20 0.399845 0.0507659 0.0508005 0.19911 -3.51039 -0.151752 0.0304857 0.704219
19 0.449963 -0.00180567 0.0509299 0.218546 -3.5095 0.358846 0.329827 0.080667
24 0.498226 0.0508391 0.0502416 0.193656 -3.51816 0.254946 -0.118637 0.196518
27 0.64381 0.00101595 0.0526372 0.781438 -3.51167 0.674581 -0.351997 -0.452394
28 0.597098 0.0509654 0.0497222 0.212596 -3.49636 -0.610678 -0.524858 0.609245
32 0.696905 0.0514293 0.0500923 0.190304 -3.50869 -0.202282 -0.00456732 -0.560014
36 0.798106 0.048771 0.0486715 0.0802517 -3.52718 -0.163246 0.151306 0.069133
35 0.848117 0.000793188 0.0456202 0.561012 -3.50121 -0.0761806 -0.0330694 0.496553
40 0.89986 0.0490067 0.0497165 0.16379 -3.51783 -0.172131 0.254297 -0.144963
1 1.00012 1.00196 -0.0019848 0.460104 -3.5102 0.25576 0.178995 0.462891
38 0.947487 0.0471151 1.0009 0.643786 -3.49681 0.764718 0.724823 -0.258982
41 -0.000632472 0.100415 1.00251 0.337085 -3.5108 -0.194402 -0.0515116 -0.471602
42 0.0494354 0.152313 0.00148266 0.467818 -3.49975 0.121771 -0.586271 0.0685898
43 0.051757 0.102587 0.0482793 0.557432 -3.51646 0.325822 -0.286771 0.504072
45 0.102773 0.10266 0.00170585 0.482743 -3.50803 -0.246424 -0.312109 -0.520817
46 0.15686 0.151357 -0.000352751 1.31786 -3.47264 -1.83543 -0.502633 0.187686
47 0.15159 0.0965646 0.047478 1.23753 -3.4909 -0.0819749 0.177297 0.517636
48 0.107685 0.149476 0.0485042 1.45638 -3.48846 -0.531818 0.52184 0.516912
49 0.202329 0.0992839 0.00484301 0.586933 -3.51024 0.301654 0.145989 -0.48923
52 0.196598 0.151115 0.0522475 0.865484 -3.48678 0.696666 0.303918 -0.354425
51 0.250295 0.100137 0.0541818 0.161198 -3.5164 0.121325 0.273683 -0.366268
50 0.250728 0.151939 0.00163725 0.261518 -3.51029 -0.549262 -0.723238 0.155252
56 0.29771 0.151622 0.0546781 0.606377 -3.51131 0.40546 -0.553155 -0.819949
54 0.348409 0.15044 0.000153441 0.0934078 -3.52061 -0.183988 -0.01919 0.0244814
55 0.347806 0.101748 0.0511788 0.291993 -3.51602 0.211059 -0.392584 0.365968
60 0.39726 0.148792 0.049783 0.170659 -3.50416 0.444377 0.28744 -0.144876
58 0.449427 0.150621 -0.0034323 0.491914 -3.50794 -0.268935 -0.369777 0.798711
59 0.447443 0.103225 0.0507678 0.567488 -3.51095 0.285842 -0.452631 -0.144369
64 0.497241 0.154415 0.0496866 0.700626 -3.50673 0.258502 -0.824364 0.283788
63 0.549487 0.100832 0.0528896 0.209516 -3.50604 -0.352568 0.154951 -0.257482
67 0.646036 0.101204 0.050921 0.158088 -3.52678 0.380185 0.0468727 0.22903
68 0.598659 0.152752 0.0507664 0.288886 -3.51542 -0.174149 -0.187247 0.555306
72 0.699258 0.148595 0.0518164 0.315271 -3.50978 -0.4611 0.532733 -0.0309795
71 0.744814 0.100569 0.048183 0.544968 -3.50968 0.950895 -0.265055 0.34572
73 0.798299 0.0993336 1.00083 0.142924 -3.51526 -0.254075 -0.043426 -0.123251
76 0.795983 0.149531 0.0529518 0.43056 -3.51013 0.553412 -0.298343 -0.376004
75 0.847819 0.100025 0.0483167 0.231966 -3.52127 0.428086 -0.137039 0.433888
77 0.898666 0.0994501 0.998557 0.278638 -3.51451 0.502249 0.111946 0.486063
80 0.899782 0.149234 0.0493167 0.190424 -3.51734 0.321001 -0.156733 -0.255115
44 0.00151503 0.147775 0.0542209 0.7451 -3.51244 -0.136707 0.515959 -0.678563
78 0.95106 0.152244 -0.000162642 0.433998 -3.49131 -0.0428161 -1.0022 0.0161855
79 0.949743 0.0982886 0.0509033 0.167498 -3.50713 0.0687634 0.453053 -0.603956
83 0.0501246 0.200623 0.0530466 0.624118 -3.51223 0.142127 -0.484744 -0.407729
84 1.00014 0.249101 0.0494562 0.110124 -3.50608 0.473675 -0.403176 -0.0348331
85 0.0980388 0.197077 0.996286 1.31411 -3.46862 1.03747 0.286327 0.846836
87 0.150965 0.204897 0.0490194 0.755123 -3.46688 0.265783 -1.59854 0.146119
86 0.150272 0.252629 0.998611 0.369176 -3.5148 -0.376166 -0.409559 -0.177239
88 0.0994699 0.247944 0.0475739 0.593504 -3.48518 -0.0677604 0.806171 0.646199
89 0.199455 0.200218 -0.000497588 0.249171 -3.4848 0.787164 -0.0616131 -0.0841796
91 0.245888 0.197997 0.0496255 0.858192 -3.47746 1.0708 1.41514 0.443548
92 0.200623 0.249579 0.0458905 0.783174 -3.50673 0.0993477 0.563719 0.692908
96 0.299738 0.252108 0.0492337 0.227156 -3.50597 -0.239679 -0.469 0.0677472
95 0.35046 0.197772 0.0500282 0.36365 -3.51706 -0.265687 0.585632 -0.204626
94 0.34934 0.249917 0.000634326 0.178642 -3.52044 -0.0144506 -0.021466 -0.0668445
100 0.398601 0.249671 0.052219 0.249895 -3.51662 0.0308697 -0.35605 -0.43577
99 0.445614 0.199344 0.0484898 0.330902 -3.51711 0.0683468 -0.0864192 0.270856
103 0.546299 0.201882 0.0499891 0.260276 -3.51816 0.227809 -0.183376 0.216385
107 0.651416 0.199062 0.0519412 0.417515 -3.52613 -0.352586 -0.0179227 -0.00135866
106 0.64765 0.248069 0.00203373 0.272177 -3.49207 0.903944 -0.518256 -0.358976
108 0.598843 0.249355 0.0483183 0.267131 -3.5126 0.279569 0.0688596 0.412941
109 0.696857 0.197171 0.998703 0.533241 -3.50605 0.0395225 0.56915 0.412037
111 0.74709 0.198229 0.0536337 0.622007 -3.46462 0.30209 0.765275 -1.09751
112 0.700294 0.247218 0.0507105 0.173963 -3.50271 -0.139515 0.421945 0.237413
113 0.799811 0.201643 1.00183 0.404728 -3.51225 -0.0385867 -0.382988 -0.123634
116 0.804269 0.248975 0.049329 0.537373 -3.4836 -0.514013 -0.19793 0.453708
115 0.850916 0.196829 0.051497 0.474822 -3.50727 -0.182963 0.678214 -0.540056
120 0.901746 0.246593 0.0482333 0.313045 -3.52051 0.262431 0.38136 -0.0754043
119 0.952468 0.197423 0.0472878 0.449857 -3.50206 -0.507302 0.644482 0.511372
82 0.0523739 0.247018 -0.000803925 0.269398 -3.50647 -0.193755 0.57661 0.00863905
123 0.0516267 0.299229 0.0518748 0.445998 -3.51903 -0.0667423 -0.305458 -0.415773
125 0.0984503 0.300133 0.997749 0.178495 -3.5164 0.0746715 -0.333063 -0.202356
127 0.147558 0.300856 0.0504066 0.363039 -3.52016 0.289327 -0.233832 -0.204331
129 0.195879 0.30493 0.00119097 0.863156 -3.49236 0.457757 -1.03567 -0.601679
131 0.246569 0.302173 0.0491396 0.393371 -3.51893 0.577525 -0.210357 -0.0634538
133 0.298313 0.298152 0.997013 0.426034 -3.51608 0.173008 0.520551 0.409051
135 0.351458 0.301055 0.0482696 0.429328 -3.50772 -0.528497 0.1026 0.241593
137 0.400172 0.297072 0.00112375 0.339531 -3.5064 -0.165805 0.288826 -0.533001
98 0.447319 0.248134 0.999647 0.154011 -3.51058 0.0809687 0.382663 0.294757
139 0.446831 0.299256 0.0534491 0.459433 -3.50007 0.524634 -0.233031 -0.75418
104 0.495525 0.248687 0.0498152 0.369114 -3.52681 0.132872 0.0405158 0.147178
141 0.500443 0.299497 0.00411384 0.454899 -3.51361 -0.495944 0.123762 -0.35333
102 0.548254 0.25037 1.00147 0.107664 -3.52814 0.0647447 -0.0905429 -0.083207
143 0.550693 0.298119 0.0509675 0.271527 -3.5052 0.168546 0.677077 -0.219892
145 0.600851 0.299611 0.0004968 0.182542 -3.5055 -0.396873 0.205403 0.53982
147 0.651225 0.299574 0.0512342 0.115394 -3.51785 -0.264509 -0.360418 0.214337
149 0.701467 0.296494 1.00279 0.32149 -3.50284 -0.601449 0.268555 -0.329618
151 0.750043 0.29668 0.0488465 0.505697 -3.5047 0.163662 0.303838 0.787172
153 0.802358 0.295135 1.00457 1.39608 -3.47547 -0.395615 0.735806 -1.40726
114 0.854547 0.249726 0.996914 0.722813 -3.50021 -0.497415 -0.403958 0.707318
155 0.852818 0.3014 0.0465406 0.531392 -3.49968 0.420169 -0.580942 0.522178
118 0.951662 0.251937 -0.00426041 0.538316 -3.52331 -0.248872 -0.468731 0.33545
159 0.95502 0.296415 0.0479396 0.502878 -3.50392 -0.887222 0.534519 -0.151562
124 -0.0008705 0.34845 0.0469335 0.430777 -3.51714 0.405393 0.183172 0.510845
163 0.0500045 0.399502 0.0510379 0.213492 -3.50422 -0.115275 -0.0631829 -0.521835
126 0.146439 0.352123 1.00116 0.47297 -3.49227 0.135489 0.0798672 -0.999848
128 0.0994781 0.34906 0.0459487 0.714589 -3.49172 -0.272333 0.00508289 0.975799
165 0.0991889 0.40441 0.998323 0.610099 -3.48641 0.231021 -0.766367 -0.116665
167 0.14527 0.402982 0.0490951 0.505262 -3.51718 0.417227 -0.179727 0.0415543
132 0.195454 0.351371 0.0493882 0.304648 -3.50852 0.450222 0.283762 0.288802
169 0.197919 0.400001 1.00168 0.337529 -3.52499 -0.0786989 0.304411 -0.289491
171 0.250992 0.400826 0.0486977 0.440132 -3.50247 -0.522077 -0.390812 0.414531
130 0.2467 0.350746 0.999228 0.257054 -3.51049 0.675161 0.0637278 0.446129
136 0.300115 0.348386 0.0510459 0.354267 -3.50218 0.100236 0.163888 -0.229501
134 0.351605 0.348923 0.99489 1.02752 -3.48088 -0.573472 -0.141232 1.11019
140 0.401367 0.34709 0.0515068 0.517938 -3.50512 -0.314982 0.758788 -0.225632
175 0.350007 0.398201 0.0486467 0.251338 -3.51055 -0.14691 -0.0775454 0.397072
179 0.448227 0.401565 0.0483453 0.462538 -3.49827 0.373558 -0.340752 0.638279
144 0.498018 0.350881 0.0507165 0.278439 -3.51886 0.0704763 -0.195916 -0.410048
142 0.551151 0.347964 1.00187 0.225078 -3.52645 -0.236796 0.191224 0.00725587
181 0.500208 0.400185 1.00055 0.114842 -3.52216 0.11089 -0.343865 -0.036174
183 0.551745 0.399758 0.0506166 0.18323 -3.51383 0.0828355 0.0359596 -0.615292
146 0.651326 0.345313 1.00228 0.756676 -3.4985 0.229989 1.28195 -0.650833
148 0.602482 0.353298 0.0526189 0.798449 -3.51398 -0.239607 -0.763548 -0.631209
187 0.654218 0.400041 0.0491734 0.374343 -3.51023 -0.258233 -0.130696 0.111892
152 0.698746 0.348571 0.0493765 0.469394 -3.50494 0.688793 0.212023 0.438251
189 0.703894 0.401063 0.999152 0.594545 -3.5069 -0.890656 -0.226956 0.355999
191 0.752211 0.400167 0.0470791 0.386892 -3.50725 -0.373521 0.00236572 0.531988
150 0.750797 0.348592 1.00329 0.366259 -3.5111 0.302891 -0.0364592 -0.777744
156 0.802984 0.346922 0.0487482 0.439681 -3.50716 -0.416283 0.457665 -0.226375
193 0.800186 0.399536 1.00035 0.172499 -3.50421 -0.0403524 0.0398289 -0.337828
160 0.905491 0.347538 0.0455731 0.573202 -3.5081 -0.174422 0.0625811 0.539927
195 0.850895 0.396682 0.0488316 0.281838 -3.51522 0.317144 0.485145 -0.395866
197 0.903524 0.395751 1.00025 0.815336 -3.50612 -0.553926 0.620816 -0.382471
158 0.954614 0.348942 0.996246 0.380038 -3.51657 -0.17625 -0.402633 0.16914
199 0.95203 0.400649 0.0481574 0.317419 -3.53077 0.0950648 -0.229538 0.218767
162 0.0502855 0.447848 -0.00222726 0.522743 -3.50679 -0.352785 0.633369 0.286983
203 0.0473499 0.500637 0.0485722 0.220571 -3.50598 0.13863 -0.177659 0.12118
168 0.0980664 0.451576 0.0528708 0.399857 -3.51644 -0.1101 0.151167 -0.357306
172 0.198598 0.452662 0.049035 0.33516 -3.51629 -0.0756168 -0.311499 0.442813
170 0.249362 0.448623 0.00135679 0.203002 -3.49312 -0.567901 0.343479 -0.438326
176 0.29886 0.445612 0.0529188 0.532982 -3.50468 0.376203 0.574296 -0.122193
211 0.250447 0.497383 0.0478892 0.59692 -3.48836 -0.185267 0.434286 0.931192
213 0.297478 0.497704 1.00198 0.541282 -3.46353 1.29311 0.678685 -0.907336
180 0.399574 0.450112 0.0489485 0.166197 -3.50337 0.117676 -0.0378254 0.676613
184 0.501129 0.449019 0.0509629 0.259398 -3.50433 -0.480677 0.497242 -0.233592
223 0.549728 0.497726 0.0492293 0.397589 -3.51062 0.285272 0.614991 0.10613
188 0.603402 0.448669 0.0520575 0.353909 -3.49651 -0.165713 -0.289806 -0.653136
227 0.65201 0.499858 0.0515753 0.110606 -3.5145 -0.216949 -0.112002 -0.240672
192 0.701859 0.450413 0.0506411 0.12414 -3.52747 0.0766748 -0.012879 -0.0590084
196 0.80298 0.448363 0.0510039 0.44158 -3.5194 -0.292266 0.256002 -0.586606
194 0.851775 0.449995 -0.000887149 0.250666 -3.51003 0.0578803 -0.323497 -0.0879602
200 0.900689 0.448693 0.047821 0.147148 -3.50929 -0.181913 0.0799046 0.279258
235 0.849676 0.499466 0.0502965 0.248766 -3.49822 0.241991 0.41897 -0.309667
237 0.898344 0.500428 0.00104183 0.350178 -3.51291 0.445769 0.175509 -0.0107805
164 1.00264 0.44967 0.0506537 0.405954 -3.5177 -0.277028 0.0379569 -0.349606
198 0.948732 0.450013 0.00129733 0.473038 -3.49251 0.744309 0.517321 -0.516318
201 -0.001026 0.498883 0.997421 0.364273 -3.50767 -0.174155 0.213077 0.242484
204 0.00115381 0.551127 0.0482784 0.139397 -3.50747 -0.341782 -0.0563695 -0.0551212
205 0.0991168 0.500867 0.00419895 0.935045 -3.48344 0.324677 -0.00416135 -1.69906
207 0.147588 0.502294 0.0526738 0.373855 -3.51606 0.371658 -0.216956 -0.17458
208 0.0947873 0.551383 0.0506214 0.535047 -3.50686 0.780158 0.215368 -0.0675566
212 0.200534 0.55324 0.0499307 0.623658 -3.47604 -0.651739 -1.25828 -0.0258856
210 0.24954 0.547398 0.996035 0.937069 -3.49763 -0.733448 0.986632 1.07384
216 0.300352 0.550743 0.0477612 0.311928 -3.52067 -0.219451 -0.369545 0.0482084
215 0.347838 0.498043 0.0499679 0.243505 -3.51005 0.137277 0.28696 0.0159684
220 0.402593 0.549591 0.0489462 0.330612 -3.51127 -0.429141 -0.350726 0.0896621
218 0.450463 0.5502 0.000193026 0.149923 -3.52263 0.0573952 -0.188442 -0.209126
219 0.451632 0.500343 0.0499741 0.235156 -3.50985 -0.159931 -0.532745 0.0451505
224 0.499322 0.546435 0.0514876 0.646032 -3.50109 0.446437 0.601151 -0.393825
221 0.50035 0.498636 0.998083 0.240918 -3.5159 0.0391852 -0.178893 0.477212
222 0.551381 0.551085 1.00008 0.276876 -3.50207 0.0335114 -0.209836 0.263816
226 0.647552 0.549634 -0.00129044 0.383427 -3.50838 0.457084 0.331932 0.147527
228 0.603429 0.550483 0.0543986 1.13705 -3.49378 -0.682214 -0.150264 -0.858577
232 0.697742 0.548321 0.0523345 0.810781 -3.48089 0.866749 0.822747 -0.905532
230 0.749744 0.549097 0.00142238 0.442714 -3.47369 0.342648 0.480539 -0.409212
231 0.751189 0.499409 0.0454735 0.815112 -3.50282 0.238602 0.096123 0.755208
236 0.802585 0.551082 0.0502685 0.314136 -3.49974 -0.654059 -0.0537552 -0.439739
234 0.849543 0.551071 -0.000833795 0.168855 -3.49577 0.196492 0.780146 0.0541513
240 0.901362 0.555825 0.0488903 0.736645 -3.51677 -0.365733 -0.7749 0.0307328
239 0.951512 0.503725 0.0518257 0.705676 -3.50068 -0.549796 -0.331728 -0.839074
243 0.0476658 0.600888 0.0490285 0.24335 -3.5159 0.293725 0.326057 0.376713
247 0.15015 0.601318 0.0477105 0.342116 -3.47601 -0.594868 -0.233025 0.696226
248 0.0993772 0.649068 0.0438358 0.578202 -3.48221 0.385887 0.0230179 1.0374
252 0.199067 0.654263 0.0508733 0.759484 -3.50398 0.654607 -1.57098 -0.16418
251 0.249687 0.600585 0.0503753 0.183626 -3.48258 -0.24499 0.240312 -0.623352
256 0.301999 0.645437 0.0497107 0.785694 -3.5063 -0.621702 0.872041 -0.00633811
255 0.351168 0.597278 0.0486699 0.279124 -3.498 0.191133 0.517193 0.193197
257 0.399636 0.600029 0.00148101 0.153953 -3.52443 0.41948 0.197329 -0.236816
260 0.399364 0.649902 0.0519631 0.210372 -3.51812 0.109736 -0.19709 0.0461239
259 0.450864 0.598642 0.0494049 0.196187 -3.52447 0.135653 0.369208 0.0512933
261 0.501033 0.599329 0.000607588 0.165628 -3.51826 -0.0142358 0.0926142 -0.127806
264 0.498304 0.652806 0.0508648 0.487301 -3.47717 0.482045 -1.19405 -0.0298528
262 0.548533 0.6506 -0.00134115 0.216307 -3.50426 0.0986109 -0.20559 0.547737
263 0.551736 0.603553 0.0486305 0.671855 -3.49413 -0.479102 -0.727535 0.329783
265 0.599396 0.59955 0.998934 0.279024 -3.51931 0.113562 0.125461 0.00484824
266 0.647456 0.652632 -0.00256887 0.516956 -3.48372 0.317889 -0.520604 0.880868
267 0.649418 0.602387 0.0489024 0.171958 -3.51392 0.0662713 -0.0342938 -0.0910544
268 0.59906 0.649989 0.0507633 0.222299 -3.50856 0.311155 0.366399 -0.160658
269 0.6983 0.603367 0.999646 0.28814 -3.49926 0.274917 -0.831925 0.0981839
272 0.699916 0.652425 0.04681 0.416221 -3.49199 -0.28524 0.11893 0.951898
271 0.748095 0.603259 0.0498988 0.304442 -3.50849 0.411657 -0.480523 -0.061482
276 0.799894 0.653645 0.0471824 0.269997 -3.51678 0.00182232 -0.248602 0.524373
275 0.849464 0.603239 0.0501636 0.120162 -3.5148 0.105481 0.0385426 0.13229
277 0.899032 0.602499 1.00084 0.341168 -3.51231 -0.0300689 0.131886 -0.490888
280 0.901389 0.653555 0.050114 0.252551 -3.50667 -0.389196 -0.389149 -0.688496
244 0.999253 0.651703 0.0457217 0.392472 -3.49979 0.0622383 -0.423968 0.690306
278 0.949574 0.649675 -0.00634267 1.34985 -3.48543 -0.105855 0.496065 1.32854
279 0.951314 0.60325 0.0499087 0.381738 -3.50053 -0.156408 -0.478698 -0.840132
283 0.0483574 0.699193 0.0454051 0.216176 -3.49296 0.140751 0.147131 0.570879
282 0.0489864 0.749669 -2.30728e-05 0.34295 -3.50475 0.224292 -0.0162538 -0.501273
287 0.148555 0.697375 0.0491433 0.322982 -3.4508 0.593043 1.17544 -0.299556
289 0.199466 0.697008 -0.00195414 0.518078 -3.49469 -0.0169184 1.04204 0.254715
292 0.200232 0.751111 0.0505714 0.304786 -3.4831 -0.615118 -1.02948 -0.694487
291 0.250979 0.702006 0.048815 0.423291 -3.50295 -0.243348 -0.915347 0.0578699
295 0.347268 0.699061 0.0510396 0.348597 -3.51419 0.440506 0.00156064 0.152181
297 0.402018 0.701929 0.00444194 0.5921 -3.51315 -0.312538 -0.239001 -0.50722
294 0.349157 0.750794 0.0043842 0.56364 -3.50288 0.432971 -0.24676 -0.808841
300 0.401891 0.75035 0.0524597 0.209099 -3.51606 -0.134584 -0.376462 0.063729
299 0.452957 0.697359 0.052 0.605202 -3.46944 -1.11486 0.82835 0.378308
301 0.497402 0.699087 1.00104 0.319088 -3.49919 0.273408 0.192875 -0.344334
303 0.550255 0.698544 0.0500853 0.194613 -3.51631 -0.00341334 0.164761 0.264695
302 0.548493 0.745025 1.00247 0.645759 -3.51472 0.309874 0.396185 -0.401927
305 0.602086 0.698947 0.00113082 0.321614 -3.50215 -0.653566 0.288736 -0.0838544
307 0.649668 0.700967 0.0519429 0.250319 -3.52079 0.271534 -0.110207 -0.319036
311 0.747812 0.700607 0.048944 0.221374 -3.49702 0.349338 -0.112344 0.0882251
312 0.702905 0.749596 0.0518238 0.530918 -3.50307 -0.626777 0.351416 -0.47819
315 0.847998 0.70163 0.0500093 0.283373 -3.51085 -0.185342 -0.2789 0.0602153
281 -0.000921545 0.702332 0.999558 0.325557 -3.50629 0.248492 -0.24479 -0.634809
319 0.953754 0.702193 0.048166 0.719827 -3.48398 -0.848128 -0.651719 0.225489
284 1.00051 0.753675 0.0468784 0.762463 -3.48741 -0.525916 -0.696887 0.837535
323 0.0485067 0.801261 0.0488439 0.222978 -3.50173 0.0728752 -0.0496759 0.470729
288 0.0967341 0.745195 0.0476213 0.859057 -3.48292 1.04135 1.17772 0.261413
327 0.148647 0.797169 0.0473095 0.533218 -3.49418 -0.213746 0.769633 0.71107
296 0.300167 0.750238 0.0487585 0.199215 -3.50301 -0.28561 -0.142514 0.735508
331 0.248851 0.798123 0.0482773 0.362079 -3.51287 0.520752 0.298453 0.508251
333 0.300709 0.799854 -0.000484127 0.186539 -3.52644 -0.000209418 -0.117174 -0.0530686
335 0.351321 0.798547 0.0520598 0.136085 -3.5121 0.29619 0.166919 0.196501
298 0.451373 0.749636 0.00192982 0.157208 -3.51529 -0.291728 0.203232 -0.314656
339 0.448603 0.801408 0.0528532 0.453502 -3.50785 0.522866 -0.327586 -0.262439
304 0.499113 0.747887 0.0505403 0.212916 -3.51636 0.163835 0.368672 0.338118
343 0.551905 0.799823 0.0486877 0.456131 -3.50131 -0.326674 -0.087755 0.386728
308 0.602146 0.748628 0.0472926 0.631347 -3.50677 -0.479304 0.309553 0.659779
347 0.649963 0.798571 0.0476951 0.486272 -3.51673 -0.00632589 0.257171 0.407213
351 0.74911 0.800383 0.0508274 0.199039 -3.51865 -0.167422 0.0227871 -0.230905
316 0.794592 0.749822 0.0480236 0.857653 -3.50684 0.855399 0.110483 0.421183
320 0.899316 0.74956 0.0480699 0.31279 -3.47775 0.291537 0.121692 1.01819
355 0.846643 0.799512 0.0517399 0.53362 -3.50128 0.273044 -0.0923749 -0.438
321 1.00288 0.799454 -0.000796312 0.451319 -3.49413 -0.870332 0.256409 -0.164522
318 0.948194 0.750948 0.00052721 0.29849 -3.50592 0.629484 0.0414371 -0.535266
359 0.946785 0.798378 0.0478273 0.332237 -3.47954 0.597827 0.367306 0.49998
322 0.0463553 0.851127 1.00217 0.592778 -3.50684 0.646104 0.0226475 -0.871412
324 -0.00174461 0.851338 0.0503181 0.320006 -3.50022 -0.57558 -0.715853 -0.426762
363 0.0451565 0.900572 0.0499216 0.30503 -3.5144 0.513826 0.126424 -0.154126
328 0.0983219 0.848928 0.0502451 0.186717 -3.51266 0.243649 0.430305 -0.36946
365 0.0970654 0.90056 0.000259735 0.495915 -3.4846 0.908144 -0.55869 0.186272
367 0.149513 0.898394 0.0473441 0.465888 -3.51905 0.185574 0.196502 0.3366
332 0.202918 0.850049 0.0524065 0.646475 -3.51594 -0.42287 -0.338272 -0.17017
371 0.252729 0.895538 0.0521733 0.461385 -3.51355 -0.0457481 0.395908 -0.136737
330 0.248431 0.846312 -0.000104421 0.392672 -3.50898 0.71926 0.243461 -0.071535
336 0.30295 0.845558 0.0505644 0.715732 -3.4938 -0.559671 0.695471 0.278695
334 0.351833 0.849359 0.00574314 0.670943 -3.50418 0.077425 0.0469587 -0.598627
340 0.403276 0.853054 0.0539187 0.603925 -3.50352 -0.535507 -0.350105 -0.305409
375 0.349051 0.903353 0.0517288 0.72762 -3.48418 0.326921 -0.786073 0.138616
377 0.401481 0.89903 1.00385 0.417478 -3.51323 -0.373933 0.436644 -0.177717
379 0.450974 0.903869 0.054123 0.688468 -3.51323 -0.17436 -0.43508 -0.363347
344 0.499934 0.848824 0.0511732 0.171484 -3.51784 0.00140708 0.0624959 -0.0526392
383 0.547492 0.898111 0.0498538 0.481667 -3.49251 0.84962 0.401808 0.494547
348 0.600367 0.849587 0.0536935 0.539514 -3.52331 -0.258302 0.0213361 -0.60509
387 0.649941 0.89977 0.0498423 0.18141 -3.51374 -0.108839 -0.0216548 0.0980319
352 0.697481 0.848933 0.0482834 0.267876 -3.52383 0.158191 0.327794 0.169839
391 0.74893 0.902816 0.0497117 0.400597 -3.50423 -0.195306 -0.166537 -0.474349
356 0.796289 0.849352 0.0485045 0.462351 -3.51569 0.610971 0.282929 0.0211074
360 0.896496 0.849408 0.0477839 0.458072 -3.50627 0.497241 -0.314525 0.356713
395 0.850239 0.900002 0.0515065 0.43356 -3.5079 -0.314764 0.10656 -0.758512
399 0.946333 0.897525 0.0492591 0.58041 -3.4933 0.496545 0.751444 -0.508746
3 0.0514044 1.00255 0.0480613 0.390199 -3.5058 -0.583998 -0.739912 -0.192836
364 0.9967 0.952571 0.0483924 0.438075 -3.45653 0.86849 -0.97168 0.585011
5 0.102134 1.0023 0.999535 0.284764 -3.51924 -0.0134273 -0.591089 0.0451037
7 0.152457 1.00026 0.050849 0.169446 -3.49249 -0.184857 -0.00975057 0.321356
366 0.154623 0.950631 1.00202 0.55433 -3.50391 -0.933425 -0.403275 -0.0848415
368 0.100463 0.950252 0.0493751 0.167058 -3.49959 0.230629 -0.30911 -0.226779
11 0.249216 -0.000620197 0.053739 0.28167 -3.48231 0.888384 0.168868 0.123514
372 0.201944 0.948956 0.0525391 0.191313 -3.48981 -0.223512 -0.567558 0.139318
13 0.298878 -0.00250668 1.00068 0.526216 -3.50777 0.48872 0.728835 0.402856
370 0.251635 0.949866 1.00405 0.252198 -3.49049 -0.0728576 0.130858 -0.649042
376 0.302154 0.948843 0.0527266 0.330219 -3.49448 -0.605998 0.177689 0.0483656
15 0.348137 0.000362679 0.053321 0.182257 -3.50096 0.248788 -0.150711 0.0388313
380 0.4003 0.953696 0.0530544 0.386 -3.51226 -0.238986 -0.603018 0.163081
21 0.499565 0.998996 -0.000280594 0.136409 -3.52452 -0.246654 -0.0194513 -0.0705289
378 0.448482 0.949074 0.000510178 0.348427 -3.52792 0.0385366 0.264878 0.113273
384 0.503655 0.948044 0.0488301 0.750783 -3.48608 -0.670958 0.646482 0.230606
23 0.548202 0.999044 0.0485059 0.162787 -3.51985 0.30308 0.384932 0.220986
388 0.597783 0.950705 0.0494036 0.244931 -3.52397 0.00802788 -0.173396 0.106634
392 0.696696 0.950767 0.0483249 0.352601 -3.51198 0.279884 -0.0118275 0.00722291
31 0.747532 -0.000210657 0.0514473 0.389567 -3.50711 -0.199797 0.0223378 -0.598853
396 0.801215 0.952941 0.0477577 0.424636 -3.49957 -0.461822 -0.742022 -0.15927
400 0.89865 0.950527 0.0511926 0.403698 -3.50118 0.12512 -0.274896 -0.452044
39 0.952185 -0.000674143 0.0498382 0.554454 -3.48979 -0.558297 0.770792 0.400433
398 0.947932 0.955914 0.999804 1.2545 -3.45168 0.622146 -2.45299 0.566142
402 0.0560818 0.0494985 0.0977111 0.889551 -3.4843 -0.841892 0.483065 0.663446
404 0.99977 0.047805 0.149001 0.389584 -3.50954 -0.061925 0.361764 -0.0747994
406 0.153023 0.0488895 0.0998294 0.395753 -3.50786 -0.379231 -0.135955 -0.0420017
408 0.102309 0.0472972 0.145817 0.33532 -3.51507 -0.0339276 0.045703 0.549394
412 0.196745 0.0529028 0.150447 1.15279 -3.48333 0.911608 -0.744796 0.288675
410 0.248704 0.0503677 0.102245 0.336987 -3.50584 0.483271 -0.168866 0.652306
413 0.298186 -0.00219987 0.103359 0.33611 -3.51801 -0.0527761 0.277097 0.108342
416 0.300091 0.0507025 0.152703 0.202048 -3.52848 0.196746 -0.0076901 -0.067895
414 0.349254 0.0472597 0.100706 0.52979 -3.50345 0.437635 0.678836 0.525236
420 0.399876 0.0490848 0.155371 0.434125 -3.50487 0.241863 -0.281791 -0.763588
418 0.452418 0.049175 0.100165 0.30769 -3.51514 -0.538851 -0.0167318 0.238049
424 0.500006 0.0516573 0.151869 0.349281 -3.50634 -0.125494 -0.73465 -0.324568
422 0.547772 0.0482562 0.102204 0.202982 -3.51892 0.315237 -0.0808129 -0.306192
423 0.545677 -0.00376816 0.153239 0.91515 -3.49138 0.894007 0.556798 -0.506752
425 0.597568 0.999579 0.102862 0.383682 -3.51439 -0.165852 0.28195 -0.486196
426 0.650194 0.0497919 0.0986086 0.458787 -3.50931 -0.512775 0.38508 0.398709
428 0.598455 0.0501011 0.150478 0.115563 -3.51453 0.150335 -0.134686 -0.0248902
429 0.696108 0.0014843 0.101258 0.510206 -3.51119 0.380435 -0.368546 -0.203944
432 0.701195 0.0521792 0.151347 0.425926 -3.50016 -0.671985 -0.436425 -0.0572376
430 0.747067 0.0485104 0.0969854 0.366335 -3.52113 0.233444 0.190718 0.437977
431 0.748815 0.998692 0.148363 0.283967 -3.4678 0.00586136 0.999058 0.861189
433 0.799237 0.998564 0.0971027 0.192085 -3.50287 0.131808 0.601701 0.461333
436 0.795912 0.0493164 0.150471 0.609102 -3.50107 0.98034 -0.209501 -0.39488
434 0.848264 0.047165 0.0969895 0.380148 -3.4885 -0.107871 0.838694 0.180264
435 0.849515 1.00243 0.147595 0.365567 -3.51181 -0.356613 -0.356742 0.379105
437 0.895108 0.00162809 0.0975173 0.689832 -3.49314 0.856216 -0.508707 -0.212861
440 0.897439 0.0525685 0.149211 0.51943 -3.50987 0.452596 -0.368385 -0.12201
438 0.949046 0.0507723 0.0988372 0.251266 -3.50364 0.128854 -0.0712904 0.186195
441 0.00204312 0.0981893 0.102255 0.384721 -3.49331 -0.182553 0.32829 -0.121872
442 0.0549391 0.151492 0.101455 0.505421 -3.48653 -0.503742 -0.322602 -0.358657
443 0.0498097 0.0978696 0.147876 0.263081 -3.51345 0.492042 0.270433 0.205698
445 0.103674 0.100378 0.099647 0.276375 -3.52537 0.0747 0.145124 -0.168724
446 0.150697 0.153691 0.103896 0.982744 -3.4488 0.95485 -0.0510038 -1.36942
447 0.150054 0.0978627 0.151471 0.510264 -3.4903 -0.103638 0.641847 -0.182114
448 0.10301 0.149893 0.149374 0.213182 -3.504 -0.529364 0.254805 0.233647
449 0.199144 0.102372 0.099204 0.622975 -3.51486 -0.184328 0.0372026 0.440421
452 0.199711 0.14916 0.152649 0.432787 -3.50418 0.089718 0.252635 -0.578998
450 0.248657 0.152832 0.101568 0.349219 -3.51842 0.249726 -0.405273 0.234798
451 0.250457 0.100844 0.151628 0.178186 -3.51848 -0.402565 -0.24285 -0.283275
453 0.30022 0.099827 0.103381 0.15779 -3.5212 0.0957847 -0.162219 -0.257949
456 0.302092 0.148642 0.148199 0.507513 -3.51509 -0.394887 0.396149 0.49862
454 0.350328 0.149998 0.100808 0.109663 -3.5215 0.224926 -0.270049 0.0226309
455 0.352977 0.0992553 0.1515 0.325016 -3.51767 -0.583389 -0.0483193 0.0411062
457 0.400837 0.0990037 0.103045 0.275053 -3.508 -0.233436 -0.448368 -0.441021
460 0.402327 0.1481 0.149567 0.302355 -3.50827 -0.304812 0.224463 0.779837
458 0.449826 0.148155 0.0999475 0.187212 -3.5166 0.0434467 0.294146 0.0250954
459 0.45108 0.0999714 0.150144 0.190161 -3.51555 -0.0424569 -0.261729 0.332746
461 0.501518 0.0989998 0.100194 0.386486 -3.50976 -0.434931 0.395046 -0.158096
464 0.499259 0.150914 0.15048 0.119232 -3.52051 0.0494262 -0.312346 0.0340775
462 0.550191 0.149782 0.103237 0.453878 -3.50996 -0.263473 0.433353 -0.544407
463 0.547862 0.0999048 0.150675 0.122183 -3.52079 0.0765377 0.150269 0.0710089
465 0.596803 0.101358 0.101256 0.170977 -3.51347 0.331133 -0.461759 -0.022616
466 0.648162 0.150226 0.101393 0.114425 -3.51919 0.225 0.272346 -0.213253
467 0.647727 0.101951 0.148523 0.322453 -3.51144 0.343566 -0.583818 0.451403
468 0.600503 0.150406 0.150959 0.308119 -3.50024 -0.60407 0.0402099 -0.142272
469 0.700031 0.100517 0.0998775 0.167519 -3.52776 -0.32863 -0.0522439 0.279321
472 0.700785 0.150024 0.150788 0.16114 -3.51112 -0.546374 0.0188921 -0.182287
471 0.7512 0.0979715 0.1487 0.411771 -3.51226 -0.238547 0.418003 -0.0862847
470 0.749274 0.150106 0.101831 0.207629 -3.49511 -0.237252 -0.669303 -0.0939987
473 0.798836 0.0971117 0.0977607 0.282465 -3.51971 -0.110515 0.358214 0.109639
476 0.79807 0.148649 0.14999 0.266249 -3.5082 0.605376 -0.165582 -0.320494
474 0.852662 0.149045 0.0983463 0.552468 -3.50578 -0.784259 -0.12758 0.361264
475 0.849004 0.0960805 0.14714 0.647475 -3.50062 -0.326379 0.751146 -0.0583749
477 0.902396 0.100986 0.0991278 0.496621 -3.50696 -0.597151 -0.255225 0.0346576
480 0.897987 0.148333 0.150377 0.476306 -3.51625 0.186177 0.189387 -0.0197737
444 -0.00061019 0.150169 0.153093 0.592907 -3.47892 0.809654 0.108712 -1.37373
478 0.951686 0.148923 0.101813 0.19309 -3.51543 -0.0602828 -0.273347 -0.178722
479 0.948028 0.101226 0.152766 0.611284 -3.51092 0.405111 -0.424062 -0.710636
481 0.997911 0.200628 0.100373 0.539414 -3.50764 0.682756 -0.516683 0.0411597
483 0.0527518 0.199328 0.146533 0.730885 -3.51081 -0.282641 0.312045 0.720813
485 0.104879 0.203093 0.0989522 0.66155 -3.50533 -1.27237 -0.243434 0.592269
487 0.151362 0.201209 0.149659 0.144756 -3.50861 0.0771404 0.0883423 0.332011
486 0.151767 0.253956 0.0996662 0.443126 -3.51812 0.117515 -0.454507 -0.100481
489 0.203564 0.202747 0.10039 0.606015 -3.49241 -1.17695 -0.433366 0.42146
491 0.25132 0.202329 0.151305 0.29272 -3.52189 0.282199 -0.446667 -0.20191
492 0.20031 0.248861 0.148906 0.368328 -3.5228 -0.00291604 0.673497 0.199053
490 0.251465 0.251587 0.0991146 0.265554 -3.50344 0.0136163 -0.327563 -0.439172
493 0.302444 0.200251 0.0999814 0.265558 -3.50471 -0.693473 0.540424 -0.0344673
496 0.303126 0.248966 0.150728 0.217125 -3.52459 0.0112926 -0.0161198 0.0852002
495 0.350716 0.198396 0.151775 0.081693 -3.5244 0.135544 0.0902637 -0.0737272
497 0.39952 0.197511 0.101983 0.201701 -3.52645 0.101141 0.351929 -0.207637
499 0.450943 0.198288 0.14976 0.2533 -3.51748 -0.429638 0.331168 0.442691
498 0.44881 0.249129 0.101858 0.135092 -3.53006 -0.221649 0.0330548 -0.119861
501 0.497211 0.199585 0.101015 0.205591 -3.51437 0.326435 0.21811 -0.241931
503 0.546981 0.199949 0.150556 0.227602 -3.52353 0.337011 0.102937 -0.0777989
502 0.550147 0.250701 0.0987314 0.189043 -3.49918 -0.686194 -0.00204158 0.196965