ITEM: TIMESTEP
3750
ITEM: NUMBER OF ATOMS
4000
ITEM: BOX BOUNDS pp pp pp
3.3045603968374131e+00 3.2795439603162514e+01
-2.0047918641187579e+00 3.8104791864118816e+01
-1.6995877588088462e+00 3.7799587758808791e+01
ITEM: ATOMS id xs ys zs c_csym c_peratom fx fy fz
3 0.0524245 0.00890718 0.0480922 0.274765 -3.46495 -0.562612 0.278569 -0.0576857
4 -0.000522589 0.0624634 0.0463627 4.70056 -3.48616 0.820835 -0.870543 0.96948
1 0.00652721 0.0183157 1.00079 4.69674 -3.49944 -0.626233 0.0798331 -0.52905
5 0.100387 0.0172187 0.999438 5.08453 -3.51688 0.0446498 0.0865154 -0.607207
8 0.101105 0.0593678 0.0486748 5.44544 -3.50972 -0.0215421 0.289098 0.163753
7 0.150477 0.00917318 0.0477804 0.154557 -3.51152 0.0109687 0.0512701 0.295814
6 0.148202 0.0669223 -5.607e-05 5.31694 -3.46929 0.81853 0.776034 -0.460157
9 0.200582 0.0182058 -0.000784417 0.206122 -3.52319 -0.00766386 0.0467396 0.038605
12 0.201252 0.0597056 0.0495067 0.135723 -3.52049 0.0523318 -0.0819076 -0.302748
16 0.303279 0.0582552 0.049076 0.304331 -3.50094 -0.327702 -0.634091 -0.452066
10 0.252975 0.0663086 -0.00220315 0.172444 -3.48944 0.178745 -0.12382 -0.253271
11 0.247067 0.00934861 0.050936 5.33725 -3.50601 0.578282 -0.0486951 -0.198699
13 0.299352 0.0125351 -0.0014954 0.633011 -3.48796 0.102623 1.16705 0.146976
17 0.399642 0.015843 -0.000509009 0.203436 -3.48316 0.406406 0.299227 0.38861
15 0.352026 0.00419905 0.0460832 5.22003 -3.48557 -0.550133 0.964806 1.2612
20 0.402465 0.0549857 0.0536276 4.64915 -3.4824 -0.138909 0.425151 -1.06836
19 0.451441 0.00596779 0.0498851 5.22847 -3.50589 -0.0107133 0.137027 -0.401115
24 0.501753 0.059345 0.0482197 0.347211 -3.50684 -0.15723 -0.158571 0.0891563
23 0.554209 0.0103724 0.0483692 0.711763 -3.46057 -0.329775 -0.823315 0.350142
22 0.551273 0.0705081 0.998705 0.354025 -3.49771 -0.270746 -0.137848 0.204908
28 0.597338 0.0580653 0.0529694 0.898949 -3.45052 0.704111 0.51517 -0.474528
25 0.601179 0.0221786 1.00047 0.818637 -3.49298 0.0116929 -1.00933 -0.211254
27 0.652054 0.00714159 0.0515523 0.325164 -3.48737 -0.722951 0.224477 0.308068
32 0.697877 0.0575697 0.0479544 5.13469 -3.49178 0.425906 0.301464 0.0570588
31 0.749761 0.00699228 0.0502034 0.254311 -3.50372 0.387575 0.387225 -0.147018
30 0.751905 0.0695629 0.997374 4.93139 -3.47521 -0.208557 0.0629114 1.41137
33 0.800468 0.0170141 1.00163 5.2382 -3.50316 0.0435833 0.529892 -0.381749
36 0.802615 0.0607345 0.0514149 5.3563 -3.50905 -0.404783 -0.28573 -0.446091
35 0.852063 0.0106676 0.0482449 5.24824 -3.4954 -0.16612 -0.0297606 -0.118178
40 0.904028 0.0611047 0.0501716 5.17053 -3.51727 -0.438471 -0.488839 -0.265216
39 0.9535 0.0105526 0.0515619 0.495422 -3.48501 -0.0141951 0.0902686 -0.947837
43 0.0518823 0.107546 0.0497376 5.53336 -3.48708 0.00936441 0.500528 -0.0129199
47 0.152402 0.109102 0.0484244 5.45804 -3.50508 0.00141218 0.0530359 0.0106443
45 0.102671 0.119015 0.998873 0.243849 -3.50838 -0.0592717 -0.554698 -0.0885507
49 0.203568 0.117583 -0.00321618 0.320443 -3.47073 0.0236078 -0.586571 1.15853
51 0.251691 0.10844 0.0449267 5.29583 -3.50487 0.238828 -0.102662 1.00807
53 0.30361 0.117742 -0.00213873 0.330656 -3.44927 -0.997239 -2.08944 -0.266071
55 0.35197 0.106413 0.0494724 0.278594 -3.47908 0.35282 0.247115 0.0918758
59 0.445575 0.107864 0.0477239 5.09653 -3.50124 0.364533 -0.0592336 0.223506
61 0.502604 0.119757 -0.000573345 5.33296 -3.50336 -0.547085 -0.139102 -0.00963224
63 0.552353 0.110101 0.0506357 5.4542 -3.50961 -0.511212 -0.272746 -0.22436
67 0.652993 0.108233 0.0514717 0.531877 -3.50002 -0.394933 0.300214 -0.323358
69 0.701114 0.118366 0.998245 5.7158 -3.49094 -0.322091 0.508041 0.647274
71 0.750423 0.108706 0.0497286 0.186404 -3.50815 -0.00260218 0.160689 -0.576858
75 0.85235 0.109333 0.0467593 0.332291 -3.48962 0.00190241 0.278214 0.908384
73 0.804413 0.120122 0.999805 5.22613 -3.50591 -0.370025 -0.192575 -0.0257581
77 0.90125 0.117441 0.998373 5.5273 -3.50306 0.635069 0.0453179 -0.225477
79 0.950817 0.110564 0.0503422 0.306373 -3.47244 0.0704821 -0.640919 -2.42096
41 0.00545655 0.117745 0.999907 4.98769 -3.49976 -0.56581 0.208319 0.00834001
83 0.0510251 0.211641 0.0499243 5.37776 -3.51158 0.0194223 -0.694579 0.175118
42 0.0528077 0.168066 0.999458 0.146137 -3.49943 -0.322958 0.3278 -0.0241455
48 0.0978858 0.159043 0.0484883 5.08747 -3.49998 0.542462 0.0157417 0.431148
46 0.154191 0.163894 1.001 4.89216 -3.47838 -0.470594 0.710904 -0.88369
87 0.153243 0.206592 0.0523758 4.97965 -3.50388 -0.0724758 0.221898 -0.79883
85 0.102959 0.217704 1.0029 4.55136 -3.48931 0.194561 -0.139813 -0.699159
52 0.203471 0.158048 0.0502857 5.15773 -3.49291 -0.248418 -0.793713 -0.579223
91 0.24983 0.207374 0.0474081 0.324612 -3.50547 0.446847 0.240183 0.2013
56 0.299996 0.158411 0.047287 0.482232 -3.48968 0.243808 0.146517 0.652174
54 0.350191 0.165114 0.00170821 0.736723 -3.45543 -0.156487 0.968907 -1.26572
60 0.39364 0.156735 0.0513276 0.686038 -3.47959 1.01035 0.33324 -0.279037
95 0.349532 0.211221 0.0512466 0.428059 -3.47596 0.101655 -0.366682 -1.01304
58 0.44525 0.168327 0.000332328 5.2909 -3.49939 0.427803 -0.0272044 0.350883
99 0.446402 0.210112 0.0516049 0.180954 -3.49678 0.0760151 -0.487557 -0.287402
101 0.497284 0.217313 0.999791 0.217948 -3.50566 -0.0720307 0.0266721 0.497984
64 0.497389 0.158082 0.0509324 5.15397 -3.49978 0.0320965 -0.0485099 -0.183253
62 0.552409 0.167628 0.000873015 5.27412 -3.49192 -0.601614 0.387397 -0.0310645
68 0.600309 0.156936 0.0534255 5.45514 -3.48837 -0.000400868 0.635945 -0.441531
103 0.545574 0.206633 0.0513699 5.48202 -3.48851 0.37133 0.52904 0.0546221
107 0.64937 0.208137 0.0532357 5.3693 -3.4918 0.0234082 0.488639 -0.529847
72 0.699054 0.159362 0.0502122 0.207326 -3.50799 0.242553 -0.0506799 -0.384047
109 0.703067 0.219255 0.000428296 5.57621 -3.49552 -0.507865 0.0464217 -0.188391
111 0.744501 0.210986 0.0525415 5.72947 -3.46777 0.957172 -0.0936298 -0.839308
70 0.754995 0.170517 0.999667 4.99051 -3.48966 -0.76082 -0.20233 0.319845
76 0.800619 0.160665 0.0476731 5.61671 -3.47252 0.177454 -0.120772 0.353302
80 0.904331 0.158134 0.0473124 5.04313 -3.48419 -0.478897 0.98202 0.904392
115 0.854528 0.209017 0.0496141 5.57646 -3.50018 -0.535099 0.131203 -0.525968
74 0.85665 0.167857 0.996627 5.31015 -3.48671 -0.579266 0.366341 0.957578
113 0.801562 0.218684 0.99985 5.40091 -3.47328 0.217616 -0.271967 -0.0853855
117 0.90474 0.217849 0.999435 5.28436 -3.50632 -0.453285 -0.496954 -0.224624
44 -0.00299891 0.161247 0.0499781 0.691726 -3.48551 1.06646 -0.671715 -0.074344
119 0.95147 0.20904 0.0502364 0.136699 -3.49488 -0.168365 0.0344398 -0.881821
81 0.00124244 0.220025 0.999711 5.36935 -3.50797 0.0592828 -0.367192 0.00893107
123 0.0501378 0.30726 0.052203 5.21387 -3.50106 0.444896 0.166826 -0.29299
82 0.0534873 0.26887 0.000480694 0.211913 -3.51313 -0.0425454 -0.305708 0.214069
88 0.103862 0.259336 0.0492348 5.3772 -3.49153 0.158846 0.0464601 0.394394
127 0.149625 0.311456 0.047787 0.306662 -3.47209 0.0145731 -0.726503 0.328392
92 0.201557 0.258114 0.0480128 0.161821 -3.49261 -0.404955 0.231022 -0.173389
131 0.247776 0.312293 0.0471645 5.32545 -3.49498 0.486519 -0.550912 0.612196
96 0.299698 0.260399 0.0504192 0.232363 -3.49978 0.204328 -0.232295 -0.757303
100 0.399759 0.260804 0.051383 0.101215 -3.51858 -0.137792 -0.109979 0.0573197
104 0.494532 0.259135 0.0518854 0.285701 -3.51114 0.587476 -0.157372 0.10363
98 0.448493 0.269279 0.00194665 0.125118 -3.49764 -0.0739233 -0.191301 -0.353469
143 0.547302 0.309747 0.0531124 0.324213 -3.49971 -0.0730763 -0.18753 -0.632079
102 0.546096 0.269186 1.0032 5.50066 -3.50046 0.05077 -0.100125 -0.344226
108 0.599934 0.261448 0.0517312 5.36322 -3.47798 -0.248591 -0.444402 -0.176319
106 0.653168 0.269233 0.998245 5.49764 -3.47496 -0.828042 -0.730515 -0.114377
147 0.644871 0.312137 0.0482762 4.96252 -3.48739 0.4296 -0.672183 0.233248
112 0.697286 0.262661 0.0477904 5.64997 -3.47634 0.30579 -0.214304 0.571533
151 0.749467 0.310022 0.0480524 5.73324 -3.49023 -0.8902 -0.547572 -0.816871
116 0.799872 0.261958 0.0450403 5.56997 -3.45932 0.00537682 -0.853149 0.797999
84 0.00157474 0.25803 0.0520039 0.277544 -3.50148 -0.280915 0.290397 -0.457435
120 0.899648 0.259672 0.0508283 0.22464 -3.51374 0.35511 0.180761 -0.00801167
159 0.955061 0.308626 0.0536909 5.16303 -3.48021 -0.762314 0.0542264 -0.992585
118 0.951517 0.26827 0.999153 0.19168 -3.51365 -0.0445011 -0.0589185 0.455819
124 0.0055599 0.358799 0.0475027 5.00229 -3.5044 -0.240689 0.0569273 0.677389
128 0.0974431 0.360242 0.0495028 5.18489 -3.4749 0.53699 -0.135269 -0.287327
133 0.297829 0.320191 0.998481 5.08246 -3.51404 0.0539101 -0.265289 0.265021
132 0.202887 0.36226 0.0478058 5.1279 -3.44607 -1.11436 -0.108699 1.00047
130 0.249372 0.371056 1.00279 5.22087 -3.46509 0.293611 -0.668893 -1.02476
135 0.351106 0.310967 0.0487153 5.20165 -3.48272 0.0987516 0.424021 0.703528
136 0.300293 0.358873 0.0524689 0.64363 -3.51118 -0.312096 0.486083 -0.436155
139 0.448851 0.309749 0.0498484 0.151472 -3.5002 -0.351626 0.221422 0.370646
140 0.397628 0.361152 0.0491121 0.336903 -3.48229 0.623568 -0.203531 0.38997
144 0.498144 0.358053 0.0494377 0.25886 -3.49396 0.223633 0.551396 0.662943
145 0.597277 0.31697 0.998885 0.20883 -3.50187 0.150378 0.170455 0.310708
148 0.598185 0.358997 0.0488449 0.175405 -3.49262 -0.310157 0.330474 0.2401
152 0.697749 0.35834 0.0475308 0.13865 -3.51121 0.0955822 0.00809807 0.185112
156 0.799282 0.358152 0.0476805 5.40169 -3.52225 -0.0174574 0.308172 -0.0248479
149 0.695675 0.317224 -0.00376204 4.80426 -3.48295 0.476266 0.250744 0.286606
153 0.797565 0.31853 -0.000917651 0.364279 -3.48938 0.920974 0.0639701 0.183488
150 0.746184 0.366821 -0.00245405 5.04704 -3.49127 0.489018 0.409985 0.468256
155 0.850872 0.309072 0.0499755 5.24416 -3.49853 0.294656 0.121235 -0.472985
154 0.851012 0.367862 -0.000804448 5.65032 -3.50742 0.0070191 -0.255304 -0.169377
160 0.902605 0.361266 0.050911 5.26626 -3.49184 0.0869177 -0.390886 -0.579618
121 0.00317395 0.315573 1.00083 0.255307 -3.49649 -0.123098 0.521673 0.0182737
163 0.0560525 0.410474 0.0482678 0.435821 -3.44486 -1.14812 0.377787 1.45054
165 0.0999418 0.421132 0.00315872 0.648142 -3.44376 0.0632335 0.058273 -1.32024
164 1.00519 0.462433 0.0497463 4.83762 -3.49427 0.226496 -1.29973 -0.648206
168 0.0960746 0.461783 0.0527901 4.92755 -3.45167 1.42867 0.619595 -1.26307
167 0.14779 0.414373 0.0491404 4.76378 -3.44014 0.255663 -1.63686 -0.226507
172 0.202078 0.463398 0.0515044 5.14809 -3.49672 -0.0416 -1.03357 -0.852426
171 0.248784 0.412237 0.0484519 4.6758 -3.46626 0.403266 0.373781 1.03711
169 0.196465 0.418371 1.00064 5.17962 -3.4933 0.908188 1.20442 0.00691615
175 0.349093 0.409539 0.0488985 5.08755 -3.51804 0.0248555 0.183179 0.484052
176 0.302675 0.460841 0.0502426 0.244678 -3.49561 -0.0641607 -0.0305277 0.521324
180 0.402146 0.457511 0.0486459 0.331038 -3.49514 -0.295757 0.543804 0.779221
179 0.451219 0.410802 0.0513917 5.34066 -3.49125 0.0368496 -0.766239 -0.569036
184 0.501401 0.457363 0.0509503 0.292379 -3.49451 -0.0723489 0.57801 -0.329584
183 0.547435 0.410234 0.048874 5.17227 -3.50073 0.298084 -0.567422 0.30618
188 0.597022 0.458774 0.0508315 5.24088 -3.51708 0.179974 -0.0847596 0.286796
187 0.650401 0.410188 0.0511964 5.08683 -3.51115 -0.455767 -0.608593 -0.701386
189 0.697619 0.41813 0.000171298 5.33725 -3.48893 0.31133 -0.505244 -0.330605
191 0.749563 0.406965 0.0494031 0.186044 -3.51473 -0.0161111 0.410476 -0.284995
192 0.701393 0.458114 0.0496834 0.405807 -3.49679 0.106218 -0.112239 0.453322
195 0.848222 0.407908 0.0477162 5.48605 -3.50707 0.188215 0.369925 0.293907
199 0.956983 0.411979 0.048711 5.19899 -3.49864 -0.862312 -0.515757 0.140039
200 0.901142 0.460456 0.0502878 5.84379 -3.50772 -0.112684 -0.414505 -0.38129
203 0.0519028 0.510661 0.047171 4.81204 -3.4816 0.000170158 0.753261 0.578395
162 0.0509558 0.468829 -0.00108906 0.263201 -3.4913 0.0778205 0.0108837 0.0244026
205 0.102093 0.520602 -0.00217998 4.75219 -3.50912 -0.189177 -0.0272387 0.923408
201 1.00077 0.520391 0.000387265 5.35196 -3.50974 -0.275934 -0.363817 0.214499
207 0.149638 0.51247 0.0503698 5.3746 -3.50539 0.304174 0.0220734 -0.038035
209 0.205926 0.519067 1.00259 4.87087 -3.49591 -0.406521 -0.127261 -0.284845
166 0.151171 0.469261 0.00263315 5.32098 -3.50761 -0.347263 0.4558 -0.269398
211 0.255919 0.508744 0.050052 4.95184 -3.49194 -0.389424 0.304007 0.0557339
170 0.252407 0.46429 0.999447 4.79587 -3.49965 -0.333136 0.973046 0.213997
213 0.301228 0.517438 -0.00113333 0.257534 -3.49081 0.177052 0.0805838 0.144917
215 0.355356 0.51189 0.0484196 0.538729 -3.48202 -0.103209 -0.638069 0.385447
178 0.453058 0.466636 1.00045 5.17139 -3.46143 -0.981517 -0.521343 0.0335619
219 0.449545 0.509923 0.0470169 0.324595 -3.48409 0.354051 -0.157787 0.526836
221 0.497768 0.517544 0.995351 4.33521 -3.46916 1.1075 0.498774 1.76607
223 0.54819 0.50885 0.048016 0.307648 -3.49188 0.00159631 0.143853 0.454865
227 0.650532 0.506416 0.054847 4.72415 -3.45181 -0.637911 0.218054 -1.80236
231 0.745522 0.510787 0.0475992 4.51771 -3.5044 0.547819 -0.626738 0.565929
190 0.746265 0.466881 0.998678 5.29454 -3.51349 0.690438 -0.230845 0.140059
196 0.798125 0.459703 0.0506554 5.54411 -3.48083 -0.356424 -0.702269 -0.6288
235 0.849368 0.510265 0.0510638 5.84853 -3.51294 0.351173 -0.14099 -0.369685
239 0.952609 0.506812 0.0519973 5.17865 -3.48812 -0.530365 0.917093 0.0142015
237 0.900533 0.519967 -0.000305934 5.27813 -3.45951 -0.568824 -0.733651 1.26712
208 0.100118 0.562672 0.0505224 4.93645 -3.50141 0.0546979 -0.953831 -0.236448
204 0.996629 0.559196 0.0524515 5.42373 -3.49894 0.686349 0.325086 -0.0144558
243 0.0482737 0.610254 0.0519313 5.01826 -3.4909 -0.0319007 -0.761572 -0.256818
212 0.205698 0.562151 0.0520197 5.01615 -3.47206 -0.558482 -0.842668 -0.152247
247 0.150189 0.612423 0.0527725 5.29835 -3.47528 0.164415 -0.864193 -0.0039965
216 0.302246 0.556381 0.0502979 0.602826 -3.48425 0.364102 0.826328 -0.0900096
251 0.257059 0.606353 0.0500813 4.77492 -3.48373 -0.266517 1.01267 0.192377
210 0.252462 0.568255 -0.00102172 0.190597 -3.50632 0.171088 0.038114 -0.02154
220 0.401519 0.561486 0.0480866 5.54502 -3.49824 0.15213 0.0983292 0.544655
255 0.352313 0.611338 0.0499351 4.98919 -3.49014 -0.0650317 -0.79774 -0.239982
224 0.499142 0.558857 0.0483715 0.185434 -3.50236 0.424398 -0.44721 -0.133062
218 0.451833 0.567913 0.000260714 5.10148 -3.50728 -0.507476 0.458552 -0.242937
259 0.45587 0.612063 0.0471928 4.94872 -3.47886 -0.937798 -0.827209 0.931743
228 0.599985 0.561389 0.0527038 0.590511 -3.48524 0.0858227 -0.760566 -0.66598
263 0.549954 0.609112 0.0494603 0.188356 -3.50883 0.0530398 0.270191 0.0446726
226 0.652319 0.567884 0.000144068 5.35171 -3.49527 -0.640786 0.00490634 -0.129856
232 0.696398 0.55885 0.0491507 5.03041 -3.49323 -0.011555 -0.474465 -0.0797927
267 0.651329 0.610333 0.0495711 5.15031 -3.49776 -0.452328 -0.480561 0.255768
271 0.749146 0.606922 0.0531963 0.394934 -3.49496 -0.376569 -0.348219 -0.452635
236 0.800607 0.557836 0.051722 5.34831 -3.5109 -0.559672 0.243147 -0.142695
275 0.847152 0.60899 0.0503997 0.250803 -3.50063 0.513779 -0.0704651 1.0833
240 0.901299 0.559495 0.0527425 0.251806 -3.46535 -0.657544 -0.809728 -0.125373
279 0.947582 0.611435 0.0522092 0.308377 -3.5042 0.231638 -0.400168 0.376538
238 0.946971 0.567463 0.00448442 0.428351 -3.50395 1.04651 0.646765 -1.24961
248 0.100514 0.660246 0.053656 0.326275 -3.49591 -0.21154 -0.708097 -0.0566016
244 0.998866 0.658092 0.0542533 0.29376 -3.522 0.0992831 0.387561 -0.51817
252 0.200702 0.657555 0.0522572 5.58829 -3.50858 0.439208 0.200558 0.0492008
249 0.203847 0.618171 0.00043636 5.306 -3.5 -0.598212 -0.143487 0.391133
256 0.306874 0.66074 0.0512431 5.02629 -3.49465 -0.612212 -0.167912 0.329797
260 0.403438 0.660382 0.0498243 0.232182 -3.50128 -0.431364 -0.108461 0.35739
254 0.349177 0.669181 1.00221 5.27357 -3.49741 0.657077 0.14076 -0.339232
264 0.500421 0.661677 0.0506079 0.362786 -3.49229 0.72761 -0.457995 -1.06766
258 0.452013 0.666714 1.00084 4.85313 -3.50199 -0.290411 0.359454 -0.253883
268 0.599474 0.660178 0.0490833 4.95963 -3.51027 0.287793 -0.333907 -0.132437
269 0.698998 0.616926 -0.000596686 0.226636 -3.49942 0.655799 -0.188324 1.04679
272 0.702803 0.65584 0.053657 4.98609 -3.47282 -0.518926 0.246318 -1.14565
276 0.799634 0.656435 0.053692 0.328296 -3.48481 -0.800409 0.332268 -0.729999
280 0.897236 0.658653 0.0509021 0.18808 -3.50537 0.107762 0.203312 0.269844
241 0.998891 0.616208 0.00343747 0.221514 -3.50946 -0.0875206 0.305978 -0.447575
278 0.951336 0.66752 0.00232523 5.238 -3.50306 -0.57586 -0.132144 0.115179
283 0.0521956 0.706737 0.048461 1.14459 -3.47102 -0.641064 0.789319 1.27926
288 0.102738 0.758421 0.0524421 0.514486 -3.4783 -0.709623 0.300465 -0.300635
287 0.148262 0.705584 0.0540725 5.01391 -3.46524 0.488097 0.769584 -0.140085
289 0.19492 0.719076 1.00208 0.598557 -3.47054 0.785546 -0.458295 -0.178848
291 0.252181 0.706857 0.0504904 5.25502 -3.50793 -0.245931 0.492969 0.382103
292 0.198374 0.75735 0.0509418 0.255484 -3.47042 0.308662 0.18814 -0.317829
295 0.355508 0.709768 0.0525456 0.667106 -3.46642 -1.02512 0.164987 -0.725597
296 0.300275 0.758672 0.0500383 0.152311 -3.50711 0.12064 -0.048869 -0.350589
299 0.449327 0.709086 0.0500892 5.28777 -3.51589 0.361761 0.416859 0.110385
300 0.399663 0.762231 0.0517929 0.504076 -3.50225 0.233468 -0.356382 -0.269524
297 0.399726 0.720203 0.00342073 0.517417 -3.49395 0.473888 -0.443874 -0.670103
298 0.45155 0.769392 1.00111 0.263127 -3.5093 -0.0872231 -0.193252 -0.510423
303 0.554973 0.711031 0.049746 5.10886 -3.50426 -0.501508 -0.0481334 -0.299529
304 0.501253 0.758236 0.0492985 5.34459 -3.51411 0.0978809 0.093501 0.156873
307 0.65285 0.709482 0.0488343 0.288629 -3.47359 -0.433582 -0.549742 0.190643
308 0.602883 0.760238 0.0484088 0.279177 -3.5157 -0.0701086 -0.367608 0.138375
312 0.704762 0.75771 0.0523347 0.927196 -3.4889 -0.280495 0.0785622 -1.1211
306 0.649353 0.76911 0.998007 0.326467 -3.47462 0.502495 -0.247305 0.647576
311 0.752747 0.70748 0.0519291 0.552513 -3.49587 -0.566853 0.00400514 -0.000341176
315 0.845389 0.706066 0.0512951 5.20007 -3.50613 0.0126928 0.63061 0.0305978
316 0.795337 0.758951 0.0505152 0.408499 -3.49731 0.187608 -0.0551959 0.0864301
313 0.79305 0.719115 0.00127357 0.651932 -3.48698 0.252981 -0.260987 -0.509143
317 0.895468 0.718572 0.00269376 5.25778 -3.46365 0.154594 -0.805317 -0.488446
320 0.895979 0.756465 0.0483202 0.624576 -3.46792 0.155795 1.19957 1.17635
284 1.00027 0.761443 0.0514744 5.48141 -3.49234 -0.366889 -0.666897 0.169913
319 0.950929 0.709407 0.0528423 5.37324 -3.50356 -0.426547 -0.274456 -0.391619
281 0.999619 0.715917 0.00378126 5.55959 -3.50419 -0.0925213 0.14147 -0.578869
323 0.0489587 0.809195 0.0513895 5.35191 -3.4981 0.523676 -0.107134 0.254947
325 0.0970728 0.817355 -0.00122319 5.16662 -3.47998 0.124693 0.446425 0.359567
327 0.151288 0.812114 0.0517347 0.786823 -3.40723 -0.378493 -1.52605 -1.55908
331 0.249652 0.808621 0.0487333 0.167026 -3.50806 0.285932 -0.030925 0.209446
335 0.349808 0.808782 0.0488551 5.14139 -3.50744 0.037825 0.380775 0.294945
337 0.399401 0.820539 0.998638 0.388743 -3.49966 0.355184 -0.382521 -0.429536
339 0.452726 0.808184 0.0500431 0.287503 -3.49932 -0.0172303 0.446946 -0.359387
343 0.552142 0.808466 0.0484115 0.100565 -3.50692 0.0040507 -0.0608943 -0.0814383
345 0.601227 0.816744 -0.00512843 0.537786 -3.47638 0.104945 0.611086 0.885293
347 0.65152 0.808843 0.0497326 0.175974 -3.4995 0.242696 0.0152811 -0.23353
351 0.749296 0.809138 0.0479594 0.278256 -3.49355 0.114823 0.182781 0.386293
355 0.84874 0.808828 0.0501726 0.0582178 -3.52017 0.091796 -0.174776 -0.11488
353 0.796474 0.815901 0.0010051 0.756965 -3.46567 0.657874 1.13289 -0.103905
357 0.896901 0.818234 -0.000374446 0.352154 -3.48767 0.461025 -0.318087 0.297376
359 0.944984 0.808418 0.0517861 5.21775 -3.50059 0.597497 -0.113946 -0.15244
321 0.999421 0.818018 1.00496 4.92656 -3.45535 -0.695187 -0.751107 -1.67234
363 0.0463575 0.907683 0.0530433 4.77875 -3.49931 0.498073 0.238022 -0.67074
322 0.0446702 0.867566 1.00189 4.90809 -3.51783 0.25084 0.224783 -0.305182
365 0.0959768 0.917404 0.000293463 0.378606 -3.49379 0.360794 -0.21856 0.180898
328 0.0993179 0.858268 0.050069 0.163233 -3.50463 -0.225385 0.218548 -0.567698
367 0.147479 0.91091 0.0499097 5.28498 -3.4912 0.151149 -0.596635 -0.139178
332 0.200407 0.857876 0.0490729 0.364175 -3.4865 0.444698 1.46195 0.289267
371 0.252365 0.910592 0.0491681 5.35591 -3.49189 -0.909778 -0.289563 -0.0114531
373 0.300289 0.918446 -0.00279472 0.184399 -3.49661 -0.184089 0.39278 0.541262
336 0.298987 0.861779 0.0485431 0.355461 -3.49289 0.157166 -0.846269 0.0695577
375 0.350028 0.908317 0.0492898 5.52939 -3.49167 0.218593 0.206164 -0.27208
334 0.350833 0.871102 -0.00018864 5.16583 -3.51798 -0.0389975 -0.607556 -0.526499
340 0.40028 0.859178 0.0501431 5.12738 -3.4997 0.0336204 -0.083273 -0.467408
379 0.453939 0.909401 0.0503882 5.26211 -3.51188 -0.31507 -0.219298 -0.202058
344 0.502778 0.858696 0.0500657 0.140334 -3.51138 0.037748 0.101323 -0.150898
383 0.551563 0.909485 0.0493694 0.157919 -3.50887 4.39007e-05 -0.694004 0.0919183
348 0.602269 0.856858 0.0471565 0.271129 -3.51119 0.00248707 0.35913 0.254967
387 0.654142 0.907986 0.0490681 5.46125 -3.51887 -0.174952 -0.180585 -0.0101098
352 0.705632 0.858714 0.0486496 0.21956 -3.51555 -0.516696 0.0827748 0.027673
346 0.652905 0.868328 -0.00177621 5.91385 -3.50638 -0.246297 0.0261434 -0.117814
389 0.704903 0.919002 0.998995 0.203277 -3.50247 -0.61051 -0.0875869 0.0562081
391 0.754789 0.906742 0.0465662 0.585992 -3.49192 -0.252851 0.880225 0.847046
356 0.802195 0.859331 0.0508124 0.200301 -3.50063 0.206589 -0.30865 -0.542132
393 0.80678 0.920034 -9.28874e-06 0.427584 -3.49387 -0.470352 -0.198463 -0.699456
360 0.900628 0.857408 0.0514792 0.297016 -3.49213 -0.0381021 0.82292 -0.0619543
395 0.850534 0.909978 0.0489671 0.264607 -3.48051 0.786748 -0.320449 0.209527
354 0.854998 0.869059 0.000434393 0.360511 -3.47519 -0.655477 -0.105497 -0.219622
324 0.996291 0.85796 0.0526945 5.12844 -3.48937 0.0462886 0.0552697 0.127907
399 0.9521 0.910471 0.0513832 0.304307 -3.48045 -0.826296 -0.0705956 -0.416756
361 0.997341 0.919969 1.00131 0.452731 -3.48659 0.639866 -0.199617 -0.425908
368 0.0964362 0.961512 0.0471299 5.11158 -3.4813 0.751322 -0.767761 1.00627
362 0.0524031 0.967872 0.996988 0.399144 -3.49087 -0.629095 0.448651 0.767882
366 0.14914 0.968066 0.000417581 0.106613 -3.49497 -0.192779 -0.0485443 -0.282014
372 0.197578 0.959543 0.0514654 0.194102 -3.50717 0.368273 -0.0890431 -0.595519
376 0.29975 0.957355 0.0518761 5.30922 -3.5041 -0.133892 0.11933 -0.667764
374 0.348485 0.96509 0.999296 0.331127 -3.48506 0.384258 -0.157195 -0.461128
380 0.399375 0.955488 0.0462845 5.42508 -3.51285 0.416116 0.393114 0.754964
384 0.50252 0.958123 0.0517542 5.34763 -3.48028 0.15268 0.0718081 -0.34084
388 0.600945 0.954967 0.050904 5.2028 -3.46626 -0.26518 1.71044 0.445893
386 0.648432 0.968935 1.00355 0.699404 -3.46963 0.540357 -0.286697 -1.08736
392 0.702504 0.957732 0.0492972 0.130982 -3.50851 -0.0247431 -0.162783 0.428117
396 0.804069 0.958119 0.0497085 0.323799 -3.48017 -0.404443 0.711718 -0.200128
390 0.749492 0.968207 0.999813 5.51653 -3.49919 0.437014 0.209483 -0.122495
400 0.90102 0.963491 0.047062 0.589287 -3.48387 0.201692 -0.966832 -0.212653
364 1.0005 0.960042 0.048267 0.280798 -3.49909 0.239469 0.29438 0.545481
402 0.0523237 0.0502692 0.0969999 5.79154 -3.49138 -0.581058 0.268407 0.155641
405 0.102586 1.00344 0.0981284 4.9258 -3.50608 -0.117751 -0.819438 0.309792
404 1.00023 0.0422205 0.149609 0.169545 -3.50604 0.265198 -0.296945 -0.233526
408 0.0990076 0.043854 0.14975 0.514343 -3.49686 -0.213061 -0.816861 -0.584029
406 0.152496 0.0506002 0.097512 0.221152 -3.51195 -0.156894 0.0948496 0.246856
412 0.19933 0.0391337 0.147451 0.274638 -3.51194 -0.0391872 0.229 0.394867
410 0.252421 0.0522492 0.0990926 0.511162 -3.50031 -0.237786 -0.784597 -0.0783644
416 0.297414 0.0392021 0.151211 4.96319 -3.48452 0.633764 -0.559636 -0.486735
414 0.350154 0.0472706 0.0986102 5.34043 -3.49669 -0.00456293 -0.424669 -0.175912
420 0.402266 0.0380043 0.147927 5.47069 -3.51364 -0.203128 0.0159532 0.140865
418 0.454229 0.047151 0.0986221 0.256007 -3.50177 -0.0405625 0.0507364 0.259579
417 0.399961 0.998215 0.0974825 4.88541 -3.51655 0.272874 -0.315745 0.234456
424 0.502107 0.0390878 0.150162 5.46999 -3.51394 0.0434255 0.0312739 -0.439867
421 0.504045 -0.0012726 0.0977214 4.9782 -3.50378 -0.0586198 -0.0693706 0.513261
422 0.551143 0.0470871 0.10056 5.09519 -3.48702 -0.0355661 0.474432 0.028205
425 0.601636 -0.00257115 0.102242 0.461356 -3.45104 -0.100393 -0.0474376 -1.79444
428 0.604746 0.0390049 0.148945 5.29911 -3.49395 -0.379142 1.0907 0.643857
426 0.651441 0.0512768 0.0996922 0.285051 -3.51654 0.0875895 -0.277145 0.0583559
432 0.702872 0.0410428 0.149494 0.0973232 -3.51843 -0.0788016 0.06507 -0.0137826
430 0.747216 0.0502403 0.097461 5.08886 -3.50803 0.457291 0.0381054 0.237234
433 0.800986 0.00243098 0.0994452 0.379786 -3.50438 0.069005 -0.33844 -0.436103
436 0.800872 0.0407049 0.148789 0.142985 -3.45809 -0.19003 0.940037 0.816839
434 0.854074 0.0510426 0.0983364 4.85992 -3.51611 -0.42229 0.224737 0.23527
440 0.901558 0.0405 0.148538 0.25475 -3.50607 -0.279663 0.555165 0.0160219
438 0.950687 0.0490347 0.0992175 5.40212 -3.48317 0.36873 0.897446 0.437165
437 0.901614 0.00150672 0.0954318 0.496524 -3.47979 -0.498622 -0.0325676 0.977121
442 0.0487191 0.149602 0.0982595 5.40741 -3.5069 0.297053 0.0575312 0.0459293
443 0.0487934 0.0918806 0.145915 0.635778 -3.49788 -0.160927 0.231798 0.277677
444 -0.00477981 0.14568 0.14867 4.20764 -3.49162 0.537989 -0.729751 0.420101
445 0.103944 0.100904 0.10156 5.28206 -3.51025 -0.447066 -0.201534 -0.854287
446 0.152037 0.149099 0.0974919 4.85904 -3.51652 -0.0137853 0.13494 0.274804
447 0.149737 0.090282 0.149297 0.123263 -3.50814 0.391648 0.174117 0.00456243
448 0.101624 0.142972 0.149057 0.343572 -3.46547 0.471465 -0.800415 -0.343376
449 0.204001 0.100145 0.0995352 0.158462 -3.49047 -0.213685 -0.09029 -0.31187
452 0.205603 0.138963 0.146782 5.04326 -3.48218 -0.738012 -0.0207941 0.525878
450 0.256624 0.147329 0.10032 0.674261 -3.4971 0.175756 0.427853 -0.599093
451 0.253547 0.0876377 0.150113 5.34923 -3.47754 -0.34556 0.681335 -0.0321075
453 0.305066 0.0985634 0.0985493 0.309526 -3.41632 -1.1927 -0.780147 1.46172
456 0.301811 0.139101 0.152434 0.471058 -3.48405 -0.268136 -1.12777 -0.48466
454 0.34751 0.145963 0.10144 0.791199 -3.4534 0.645232 1.14802 -1.58121
455 0.351936 0.0874244 0.149228 5.46956 -3.51944 -0.159018 0.375902 0.144007
460 0.396826 0.138198 0.147831 5.23614 -3.48097 0.844752 0.315892 0.676193
457 0.404839 0.0976363 0.101355 0.637967 -3.48458 -0.669966 0.0180732 -0.705756
458 0.448448 0.150988 0.0988935 0.398402 -3.50349 -0.0128625 -0.614053 0.240419
459 0.454432 0.0880199 0.148222 5.17462 -3.48835 -0.394499 0.188596 0.137952
461 0.501294 0.100139 0.0991364 0.171258 -3.49505 -0.154544 -0.17909 -0.427379
464 0.502953 0.13954 0.150112 5.13978 -3.49778 -0.689242 0.0904967 0.17966
463 0.55143 0.0901515 0.145985 5.28861 -3.48729 0.196498 -0.00790435 0.933078
465 0.599626 0.0995329 0.0987123 5.22405 -3.49035 0.502124 0.453673 0.469126
466 0.650551 0.152962 0.101075 5.20845 -3.47942 0.184158 -0.633492 -0.436303
469 0.702932 0.100176 0.0978269 5.49498 -3.49502 -0.369359 0.318342 0.685366
472 0.698507 0.140797 0.15082 5.18532 -3.49038 0.430498 -0.267579 -0.523541
471 0.752951 0.090232 0.150216 0.457263 -3.50009 -0.340469 0.857803 -0.162843
470 0.749467 0.151787 0.0990686 5.0939 -3.49701 0.158169 -0.402947 -0.11181
473 0.798675 0.102117 0.0990827 5.06142 -3.48258 0.145 0.0516485 -0.29121
476 0.802071 0.143792 0.149584 0.413394 -3.42962 -0.10284 -1.01575 -0.880112
474 0.851824 0.148634 0.0970528 4.82229 -3.51151 0.0623909 0.304118 -0.00044699
475 0.846078 0.0937466 0.146545 4.89478 -3.471 0.750457 -0.693937 0.549802
477 0.90608 0.101311 0.0983132 5.03255 -3.47733 -0.255162 0.0268957 0.559386
480 0.901742 0.141643 0.148383 0.370628 -3.48743 -0.13107 -0.244645 -0.268726
441 -0.00297514 0.102707 0.0981301 5.06645 -3.49116 -0.0439221 -0.528554 0.48896
478 0.948895 0.15324 0.0993737 0.334082 -3.49577 0.151478 0.481285 1.05937
479 0.950807 0.0909113 0.151882 4.7922 -3.49227 -0.346653 0.130104 -0.680712
483 0.0558828 0.188519 0.148195 4.84199 -3.47699 -1.09363 0.818788 0.0079236
485 0.104174 0.200379 0.0996199 5.59027 -3.49444 -0.470288 -0.0522505 -0.111789
487 0.155794 0.190401 0.147605 0.303198 -3.4983 -0.703703 -0.685738 -0.0173248
489 0.202019 0.199333 0.0993999 0.251566 -3.48306 0.751841 0.129339 0.630729
491 0.253934 0.189028 0.148271 0.259694 -3.51184 -0.103924 0.202129 -0.0821394
493 0.304172 0.200627 0.0984684 0.553878 -3.48531 -0.56884 -0.387067 0.0512805
495 0.34937 0.189273 0.14923 0.21355 -3.50301 0.285432 -0.241747 0.365068
497 0.397349 0.199339 0.10081 0.239251 -3.50267 0.11918 -0.692962 -0.350291
499 0.451752 0.191144 0.148924 5.13082 -3.46636 -0.520986 -0.507919 0.808658
501 0.49582 0.19902 0.10198 0.256215 -3.50022 0.692631 0.27402 -0.508016
462 0.549132 0.150244 0.103024 4.99025 -3.48872 0.326229 0.0483311 -0.726845
503 0.550516 0.189618 0.150448 0.194962 -3.49665 0.123642 0.264638 0.011577
505 0.599279 0.203029 0.10058 5.6314 -3.51367 -0.0316235 -0.467878 0.272027
507 0.651246 0.191455 0.149804 0.231979 -3.4853 -0.0668801 0.520642 0.134799
509 0.701243 0.201581 0.100768 0.234918 -3.50568 -0.329038 0.202358 0.451289
511 0.751583 0.186101 0.150103 5.28438 -3.44337 -0.200182 2.56095 0.0698195
513 0.802785 0.200207 0.0966778 0.489855 -3.5099 -0.274331 0.164689 0.505536
515 0.853331 0.190061 0.146836 4.77238 -3.5043 -0.405481 0.580818 0.733692
481 0.000965554 0.199616 0.101086 4.84764 -3.50369 0.117773 0.452479 -0.0747307
517 0.900578 0.2019 0.0995475 0.167759 -3.48507 -0.0692721 -0.71995 -0.907786
519 0.947668 0.19558 0.151823 4.626 -3.48889 0.573074 -0.917592 -1.78005
482 0.0494327 0.252402 0.100277 5.09523 -3.49216 0.459299 -0.515746 -0.161051
523 0.050728 0.290419 0.149096 0.183194 -3.51535 0.344593 0.16936 0.416762