ITEM: TIMESTEP
750
ITEM: NUMBER OF ATOMS
4000
ITEM: BOX BOUNDS pp pp pp
5.8232539317663379e-01 3.5517674606823292e+01
-3.5473821766338887e-01 3.6454738217663248e+01
-3.5911214440984551e-01 3.6459112144409843e+01
ITEM: ATOMS id xs ys zs c_csym c_peratom fx fy fz
2 0.0497049 0.0508886 1.00007 0.206845 -3.52144 -0.0107545 0.096611 0.153405
4 1.00106 0.0504538 0.051773 0.140595 -3.5301 -0.130801 -0.0199326 -0.060106
8 0.0973708 0.0479081 0.0525399 0.656401 -3.50466 0.697578 0.128413 -0.282103
12 0.20433 0.0483597 0.0505243 0.58364 -3.51153 -0.365848 0.262591 -0.0049744
16 0.300186 0.0449438 0.0528392 0.734671 -3.50572 -0.144943 1.01208 -0.0788562
20 0.400683 0.0518584 0.0531569 0.49172 -3.45925 -0.340995 -1.49446 -0.181722
19 0.450003 -0.00398253 0.052128 0.512148 -3.50753 -0.498836 0.653833 -0.257917
24 0.499245 0.0476813 0.0508533 0.15646 -3.51281 -0.178755 0.391805 -0.200344
27 0.648713 1.0013 0.051415 0.48713 -3.4998 0.236529 -0.82031 -0.580226
28 0.59934 0.0477931 0.0513931 0.096313 -3.509 -0.149638 0.0138919 -0.312831
32 0.699503 0.0484978 0.0504954 0.150613 -3.5169 0.0539256 0.652163 -0.325503
36 0.802599 0.0474652 0.0519462 0.647379 -3.49546 0.0903189 0.67975 -0.66231
35 0.851468 0.998288 0.0485095 0.429035 -3.49352 -0.179957 0.572845 -0.116397
40 0.897899 0.0518345 0.049523 0.269543 -3.50864 0.606557 -0.183483 -0.13924
1 0.995511 1.00265 0.000538729 0.615147 -3.51702 0.668567 -0.277809 -0.0583452
38 0.949046 0.0507368 1.00011 0.107007 -3.51608 0.0482144 0.240271 0.151219
41 0.999686 0.0994196 0.000196553 0.129106 -3.52357 0.178784 -0.00442692 0.222549
42 0.0517628 0.150003 -0.000426803 0.187795 -3.5092 -0.294146 -0.0677603 0.213041
43 0.0543933 0.0997556 0.0512902 0.441253 -3.50752 -0.74537 -0.15097 -0.239399
45 0.102288 0.0985086 0.0021396 0.207053 -3.5161 -0.295831 0.45909 -0.0759659
46 0.151119 0.148909 0.000166754 0.17756 -3.52055 -0.493513 0.187832 0.457235
47 0.150128 0.0996752 0.0516398 0.116449 -3.51507 0.214987 0.0110254 -0.271428
48 0.10069 0.150817 0.0534731 0.337667 -3.50937 0.516958 -0.154969 -0.795698
49 0.200421 0.100671 0.0004557 0.280602 -3.51719 0.00615406 -0.546844 0.364952
52 0.199511 0.151042 0.0522795 0.137728 -3.51533 0.147201 -0.0144796 -0.222458
51 0.251667 0.0983629 0.049916 0.21718 -3.50946 -0.286471 0.0124874 0.179159
50 0.249244 0.151084 1.00179 0.134962 -3.51961 0.287275 -0.299276 -0.155874
56 0.300654 0.149503 0.0513317 0.16273 -3.51288 -0.379398 0.547878 0.0634836
54 0.350029 0.152392 0.00396248 0.520961 -3.49837 -0.460339 -0.559839 -0.448733
55 0.347222 0.101393 0.0507611 0.604659 -3.48448 0.159852 -0.898911 0.194873
60 0.399865 0.151101 0.0526411 0.257158 -3.5036 -0.204278 0.197284 -0.0991361
58 0.448216 0.150733 1.00268 0.238958 -3.51343 0.00629102 -0.274595 -0.00560388
59 0.447934 0.100403 0.0496711 0.324455 -3.45261 1.36193 0.295749 0.851619
64 0.498832 0.151303 0.0500628 0.135985 -3.51015 -0.0366223 -0.225539 0.0297546
63 0.549884 0.0969267 0.0500246 0.34157 -3.51138 -0.23054 0.629311 -0.125944
67 0.646372 0.0969215 0.050367 0.442922 -3.51853 0.47306 0.109946 -0.0516124
68 0.600288 0.149432 0.0483184 0.199646 -3.51515 -0.268894 -0.00486422 0.105943
72 0.698743 0.148376 0.0495002 0.26484 -3.52015 0.351689 -0.020448 -0.0808854
71 0.751217 0.0998483 0.0498236 0.162973 -3.51259 -0.229833 -0.085789 -0.350145
73 0.803272 0.0984452 1.00125 0.438815 -3.50932 -0.816485 0.582389 -0.380154
76 0.80073 0.150002 0.0490412 0.161878 -3.52036 -0.115706 -0.0396196 0.0136807
75 0.849123 0.101869 0.0529341 0.835245 -3.48968 0.43844 -0.732787 -1.18165
77 0.899349 0.100138 1.0013 0.261789 -3.52245 0.316923 0.0973345 -0.0827056
80 0.902915 0.149501 0.0517518 0.345361 -3.50397 -0.467734 0.290318 -0.608715
44 1.00248 0.14817 0.0495226 0.237431 -3.50678 -0.162378 0.424594 0.373337
78 0.951071 0.148937 -0.000667836 0.163399 -3.51933 -0.0905928 0.330714 0.373697
79 0.949204 0.100215 0.0527449 0.238509 -3.51907 0.456244 -0.277336 -0.418234
83 0.051943 0.197965 0.0514705 0.415752 -3.51477 -0.408341 0.658279 -0.0819383
84 1.00393 0.248841 0.0500294 0.659432 -3.50473 -0.70824 -0.161383 -0.558775
85 0.0981161 0.200066 -0.000214318 0.179155 -3.51772 0.441245 -0.272596 -0.0365276
87 0.148332 0.201955 0.0499651 0.152272 -3.52244 -0.00158506 -0.294487 0.0823385
86 0.147616 0.250277 1.0003 0.090944 -3.52631 0.210349 0.0463174 -0.207942
88 0.0969161 0.251073 0.0489661 0.191971 -3.52923 0.165051 0.0423363 0.245759
89 0.197118 0.200129 1.00256 0.233091 -3.51752 0.586012 0.247118 -0.498968
91 0.248239 0.202135 0.0515165 0.105758 -3.51999 0.250535 0.0211789 -0.240752
92 0.198757 0.252472 0.0515363 0.157577 -3.50372 -0.35206 -0.53199 -0.201698
96 0.300045 0.254966 0.0502585 0.420999 -3.5119 -0.399701 -0.368569 -0.147442
95 0.349813 0.202766 0.051792 0.175139 -3.52318 -0.157159 0.10743 -0.072172
94 0.348061 0.253726 1.00101 0.288044 -3.49443 -0.175276 -0.702664 -0.292464
100 0.398165 0.254174 0.0483484 0.645264 -3.48848 -0.476882 -0.65853 0.722391
99 0.449043 0.204784 0.0509667 0.384766 -3.51763 -0.238796 -0.452698 -0.119948
103 0.550365 0.199298 0.0470405 0.218344 -3.50262 -0.21062 0.588987 0.646986
107 0.652786 0.199986 0.0493183 0.56327 -3.5011 -0.683827 -0.0669187 -0.240303
106 0.649432 0.249616 0.997192 0.217418 -3.50413 0.0777857 0.339326 0.256218
108 0.604006 0.24913 0.0474214 0.512523 -3.51306 -0.572054 0.283182 0.116494
109 0.698733 0.196522 0.99727 0.52768 -3.49285 0.058004 0.699591 0.632043
111 0.748519 0.198685 0.0473814 0.220013 -3.5241 0.149272 0.139348 0.13131
112 0.697959 0.25052 0.0466124 0.213641 -3.51687 0.420723 -0.127288 0.0643254
113 0.802675 0.199045 0.00182484 0.570523 -3.51766 -0.402881 0.127373 -0.532031
116 0.799038 0.252192 0.0494191 0.526411 -3.49186 0.347564 -1.04221 -0.202715
115 0.848912 0.199397 0.050403 0.394316 -3.50369 0.469867 -0.00573257 -0.249646
120 0.901179 0.249503 0.0462087 0.352801 -3.50329 -0.00398354 0.22785 0.41068
119 0.949934 0.197429 0.0499542 0.402635 -3.51286 0.50508 0.427026 0.0996629
82 0.0509445 0.248454 0.99815 0.240128 -3.49566 0.0627633 0.391231 0.0396757
123 0.0468155 0.300614 0.0473002 0.237803 -3.51853 0.19436 0.293065 -0.241401
125 0.0995062 0.299877 -0.00155056 0.199992 -3.50983 -0.476372 -0.0368525 -0.106492
127 0.146978 0.301992 0.0509536 0.220731 -3.51509 0.204984 -0.206374 -0.458992
129 0.199049 0.299187 1.00298 0.480009 -3.47684 -0.556479 0.39667 -0.993617
131 0.244213 0.30138 0.0516108 0.656986 -3.49044 0.94179 0.363361 -0.0551423
133 0.299976 0.301903 0.998003 0.333094 -3.50262 -0.349471 -0.130384 0.626044
135 0.351045 0.303191 0.0528186 0.507791 -3.5176 -0.30464 0.242435 -0.142416
137 0.392995 0.302268 0.998914 1.6187 -3.47196 1.37841 0.576174 0.898009
98 0.448766 0.251015 1.00218 0.29143 -3.494 -0.0879354 -0.11425 -0.45947
139 0.444683 0.299089 0.0501092 0.943397 -3.47985 1.19646 0.756713 -0.273495
104 0.498283 0.252756 0.0487851 0.29829 -3.50619 0.566889 0.0564081 0.209547
141 0.499449 0.299716 -0.00210406 0.283033 -3.48969 0.289847 0.162378 0.97894
102 0.548871 0.249471 0.99744 0.252592 -3.51848 0.224307 0.0939684 0.561444
143 0.552593 0.300246 0.0481184 0.329963 -3.50766 -0.0872147 0.274481 0.332335
145 0.601327 0.302118 0.997752 0.36634 -3.49734 0.060122 -0.703418 0.609631
147 0.6526 0.302311 0.0493104 0.352687 -3.51583 -0.370286 -0.566253 -0.642643
149 0.700943 0.302318 -0.00369964 0.45989 -3.50961 0.00942425 -0.613425 0.332256
151 0.747542 0.300733 0.048585 0.360603 -3.49567 0.383845 -0.126807 -0.674908
153 0.798515 0.299355 -0.00106608 0.218931 -3.52576 0.101873 0.0149269 0.0446548
114 0.850077 0.249972 -0.00184901 0.142746 -3.52386 -0.000274664 0.0525649 0.235901
155 0.852351 0.302372 0.0497596 0.62845 -3.50775 -0.441589 -0.395668 -0.364984
118 0.948866 0.248008 -0.00163924 0.27637 -3.49124 0.181782 0.720388 0.215671
159 0.953663 0.298776 0.0505088 0.851982 -3.48323 -1.26209 -0.646979 -0.815552
124 -0.0032083 0.352687 0.0453384 0.700356 -3.50732 0.687118 -0.38357 1.24334
163 0.0486048 0.403457 0.0481301 0.191278 -3.52026 -0.0322428 -0.463498 0.126327
126 0.149887 0.349079 0.000954406 0.446535 -3.49883 0.0443182 0.995962 -0.519722
128 0.0986995 0.352986 0.0467277 0.308012 -3.51892 -0.280485 -0.0980794 0.0778399
165 0.0968686 0.403196 0.996412 0.379936 -3.50955 0.466739 -0.18258 0.565934
167 0.146004 0.402497 0.04897 0.339659 -3.51177 0.292639 0.0552368 -0.407098
132 0.197643 0.351683 0.0509916 0.206516 -3.50799 0.191751 0.00428213 -0.408206
169 0.20139 0.402042 -0.00215536 0.587883 -3.48929 -1.10109 -0.64296 0.544345
171 0.246604 0.401481 0.0490244 0.457516 -3.51463 0.749678 -0.310092 -0.0478776
130 0.249771 0.349978 -0.00122333 0.356781 -3.52219 -0.383747 0.0928392 0.154196
136 0.296366 0.348949 0.0522033 0.486326 -3.50957 0.528833 0.396159 -0.731618
134 0.348808 0.352847 1.0024 0.299414 -3.5124 0.0261139 0.149361 0.147454
140 0.403045 0.353488 0.0531361 0.896795 -3.4817 -1.0691 -0.393277 -1.12737
175 0.350032 0.403091 0.0531373 0.627075 -3.48916 -0.0996683 -1.34715 -1.17363
179 0.44973 0.40032 0.0505509 0.218288 -3.50639 0.915313 0.121883 0.457825
144 0.503414 0.349623 0.0505056 0.703626 -3.49829 -1.1883 -0.000479198 -0.122268
142 0.548876 0.348906 -0.00358345 0.672878 -3.51637 0.298107 0.434461 0.922731
181 0.501623 0.40049 1.00205 0.223746 -3.511 -0.462843 0.330412 -0.365379
183 0.54848 0.39931 0.0500507 0.343302 -3.49347 0.358826 -0.187872 -0.0209856
146 0.650325 0.348648 -0.00106139 0.17943 -3.50357 0.191245 0.182217 0.446503
148 0.600976 0.352205 0.050586 0.342018 -3.50038 -0.632348 -0.506887 -0.12481
187 0.649348 0.398262 0.0502819 0.144888 -3.50879 0.425898 0.0435058 0.11855
152 0.703666 0.350052 0.0489211 0.465367 -3.5103 -0.330561 0.479654 -0.119565
189 0.695542 0.399136 -0.000527982 0.519901 -3.50074 1.04147 -0.204783 -0.140673
191 0.749869 0.402218 0.047129 0.369864 -3.51295 0.254961 -0.333077 -0.0972592
150 0.749149 0.351175 -0.0054504 0.625818 -3.50409 0.184481 -0.728538 0.747575
156 0.796208 0.350373 0.0468452 0.565302 -3.50598 0.504786 -0.0681666 0.0826516
193 0.801222 0.400093 -0.00461514 0.423342 -3.50087 -0.1369 0.0193171 0.540264
160 0.90046 0.349597 0.0508428 0.352716 -3.48884 0.0964893 0.314212 -1.00723
195 0.852628 0.398729 0.0469968 0.469944 -3.5061 -0.647209 0.552955 0.590032
197 0.900214 0.399447 -0.00353916 0.257002 -3.52173 0.0638598 -0.263725 0.629117
158 0.948049 0.348726 0.00164099 0.646503 -3.48749 0.652358 1.00541 -1.00434
199 0.948768 0.403444 0.0492413 0.436376 -3.49045 0.180303 -0.820564 0.31798
162 0.0453764 0.454107 1.00165 0.855585 -3.47862 1.28502 -1.41438 -1.51782
203 0.0475545 0.501029 0.0475553 0.2506 -3.50104 0.334116 0.0201548 0.808544
168 0.0972073 0.45159 0.0515267 0.303894 -3.50065 -0.116048 0.0648764 -0.427528
172 0.199896 0.452555 0.0514821 0.502165 -3.50417 -0.759531 -0.0756816 -0.616168
170 0.251581 0.451358 0.00260931 0.364135 -3.49184 -0.819423 0.0783833 -0.527046
176 0.30301 0.451088 0.053659 0.868297 -3.49253 -0.747987 -0.17876 -1.09668
211 0.248916 0.502076 0.0496599 0.311016 -3.51915 0.407895 -0.0649386 0.197504
213 0.301015 0.498935 1.00217 0.281599 -3.52207 0.0595876 0.286672 -0.166521
180 0.401851 0.448803 0.0499673 0.501618 -3.47493 -0.720028 1.18935 1.23249
184 0.498767 0.454132 0.0520256 0.493688 -3.51872 0.150007 -0.452351 -0.360716
223 0.553152 0.502446 0.0479668 0.695663 -3.48293 -0.736033 -0.653056 0.796186
188 0.599735 0.446971 0.051465 0.239702 -3.47892 -0.0647588 0.68983 -0.33071
227 0.649844 0.49668 0.0505736 0.499498 -3.52595 -0.161162 0.438958 -0.17424
192 0.699263 0.447538 0.0511672 0.316656 -3.4985 0.215481 0.915143 -0.196819
196 0.800008 0.4499 0.0492571 0.161796 -3.51994 0.259514 -0.173175 0.00467638
194 0.849057 0.448784 -0.00358571 0.305792 -3.50803 0.467849 0.161972 0.760043
200 0.902504 0.450017 0.0489623 0.265053 -3.49451 -0.859237 0.37042 0.227749
235 0.849872 0.501712 0.0486012 0.160277 -3.51234 0.373014 -0.440607 0.0169547
237 0.903174 0.498267 1.00045 0.430073 -3.4953 -0.526323 0.574835 0.130928
164 0.000198212 0.451289 0.0503261 0.273434 -3.4929 -1.11703 0.796399 0.0327333
198 0.951621 0.448568 0.000429239 0.285712 -3.49936 -0.129383 0.251891 -0.372822
201 0.000413212 0.500984 0.997093 0.260446 -3.47833 -0.74114 0.0725245 0.739941
204 1.00093 0.553125 0.0470811 0.226942 -3.51919 -0.0116922 0.00657653 0.532231
205 0.0959763 0.500784 0.99695 0.483983 -3.51466 0.524488 -0.0612911 0.49959
207 0.145888 0.499882 0.047854 0.507075 -3.51081 0.390936 0.317954 0.0390641
208 0.096649 0.549819 0.0500964 0.208157 -3.51705 0.491231 0.0811428 -0.178516
212 0.199811 0.552206 0.0507756 0.116786 -3.52196 -0.0319725 -0.0478776 -0.223823
210 0.251709 0.552946 0.000657557 0.172709 -3.52226 -0.130309 -0.349191 0.1048
216 0.29902 0.550357 0.0520739 0.340741 -3.51387 0.492179 -0.283424 0.0395393
215 0.353127 0.499852 0.0516492 0.260321 -3.49592 0.0112953 -0.265676 0.134183
220 0.402743 0.552903 0.0507692 0.307268 -3.4691 -0.345898 -0.964725 -0.291928
218 0.448929 0.549614 0.998158 0.351006 -3.51222 0.0357614 0.809913 0.389663
219 0.450276 0.505299 0.0504623 0.49139 -3.51177 -0.120537 -0.780333 0.123721
224 0.498225 0.553875 0.0509146 0.479501 -3.50838 0.441324 -0.755558 -0.201405
221 0.499081 0.501316 -0.000649253 0.157823 -3.52297 0.124521 0.08402 0.389867
222 0.548292 0.549016 0.00275132 0.582149 -3.50529 -0.082138 0.801679 -0.703649
226 0.651531 0.549459 0.00187514 0.454097 -3.50415 -0.4062 0.333548 -0.141841
228 0.599031 0.550726 0.0504273 0.207067 -3.5038 0.38272 0.41533 -0.0227477
232 0.698358 0.548549 0.0546788 1.01929 -3.49381 0.126157 0.594278 -1.19257
230 0.746966 0.54863 -0.000244232 0.334656 -3.50254 0.546695 0.0712685 0.327763
231 0.751178 0.499526 0.0523239 0.343037 -3.51227 -0.25654 0.176654 -0.638674
236 0.801991 0.552893 0.0479485 0.663028 -3.49003 -0.465416 -0.949888 0.448038
234 0.850161 0.549359 -0.00242703 0.421416 -3.49059 -0.0689392 0.654541 0.731018
240 0.899316 0.555381 0.0505441 0.512406 -3.49554 0.075605 -1.1108 -0.336386
239 0.951511 0.503083 0.0472095 0.268581 -3.51308 0.184573 -0.350432 0.448101
243 0.0511307 0.600877 0.0517432 0.330994 -3.51202 -0.217378 -0.0304399 -0.322878
247 0.1493 0.600197 0.0513225 0.212232 -3.52026 -0.16689 -0.168023 -0.440055
248 0.0999997 0.650689 0.0509476 0.13666 -3.52156 0.116064 -0.10114 -0.526652
252 0.198543 0.646972 0.0515413 0.98199 -3.4772 0.270814 1.12298 -0.844749
251 0.248783 0.602106 0.0512095 0.229757 -3.51128 0.448127 -0.350114 -0.244594
256 0.300371 0.649095 0.0516584 0.151818 -3.51377 0.0743481 -0.0941935 -0.13283
255 0.353832 0.595477 0.0525236 1.12868 -3.48467 -0.758393 1.14064 0.0348849
257 0.397802 0.601743 1.00036 0.274865 -3.49045 0.00428128 -0.849921 0.113489
260 0.398132 0.647999 0.0513622 0.372987 -3.51218 0.357318 0.398821 0.168077
259 0.449478 0.601978 0.0518931 0.301641 -3.49481 0.0291673 -0.363027 -0.959693
261 0.496622 0.600628 -0.00322088 0.630462 -3.50551 0.200341 -0.216018 0.72162
264 0.498399 0.650676 0.0466389 0.578883 -3.49527 0.727862 -0.637201 0.905497
262 0.55354 0.65067 0.00197678 0.700821 -3.51052 -1.04339 0.193003 -0.506208
263 0.549229 0.600675 0.0498375 0.216019 -3.51342 0.245616 0.371888 0.0836371
265 0.59966 0.601328 1.00026 0.17614 -3.50482 0.253058 -0.0367983 0.637728
266 0.653744 0.652783 0.00204662 0.70779 -3.48842 -0.046483 -0.319013 -0.570607
267 0.650593 0.604204 0.0495853 0.443166 -3.5055 -0.514416 -0.802004 -0.0035397
268 0.601072 0.654673 0.0502151 0.459292 -3.49339 0.2411 -1.1127 0.0455731
269 0.69959 0.599904 -0.000490107 0.144444 -3.50923 0.10232 -0.239841 0.454427
272 0.70022 0.648361 0.0500716 0.38241 -3.49449 0.53467 0.288881 0.37614
271 0.751806 0.598006 0.0485741 0.614941 -3.50288 -0.719848 0.414353 0.59896
276 0.801383 0.650668 0.0523022 0.385488 -3.50409 0.183361 -0.398003 -0.408628
275 0.850342 0.60271 0.0515544 0.200771 -3.4758 -0.253657 -0.29674 -0.825673
277 0.900263 0.600383 1.00175 0.262516 -3.51884 -0.155357 0.21686 -0.540389
280 0.900576 0.652337 0.0492128 0.177971 -3.51618 -0.558745 0.0490055 0.298081
244 0.000246507 0.646271 0.0476632 0.978588 -3.475 -0.518475 0.76938 0.980583
278 0.948907 0.649257 1.00189 0.584153 -3.49377 0.41771 0.7172 -0.527055
279 0.949859 0.601664 0.0506913 0.100864 -3.50411 -0.0122735 0.0450323 0.087251
283 0.0478142 0.697399 0.0517827 0.438637 -3.51767 0.716808 0.35211 -0.704791
282 0.0515819 0.751294 0.00261743 0.353607 -3.50095 -0.0599902 -0.232552 -0.466449
287 0.152442 0.700241 0.0513632 0.207234 -3.51897 -0.155606 0.181061 -0.54369
289 0.202618 0.701309 1.00028 0.243782 -3.50803 -0.573262 -0.275254 0.259475
292 0.202806 0.750678 0.0495667 0.348231 -3.52365 -0.35823 -0.122921 -0.0799407
291 0.250879 0.700045 0.0504225 0.201548 -3.51424 -0.178258 -0.35176 -0.0124961
295 0.35042 0.699745 0.0515351 0.160609 -3.52773 -0.0457446 0.112549 -0.126791
297 0.401574 0.698511 0.000201496 0.387103 -3.51049 -0.667688 0.583837 0.423487
294 0.349411 0.750782 0.00137263 0.214298 -3.51152 0.277482 0.0366013 0.0660169
300 0.40064 0.749476 0.0537171 0.274496 -3.51419 0.0224644 0.0282328 -0.66761
299 0.451612 0.700564 0.0482729 0.429073 -3.50716 -0.432768 -0.411497 0.542255
301 0.496989 0.6985 0.997548 0.673647 -3.51217 0.446168 0.127881 0.274451
303 0.551074 0.699167 0.0500568 0.302085 -3.48838 -0.33239 0.621986 -0.0285658
302 0.550012 0.748003 -0.00185197 0.30676 -3.50347 0.055991 0.323818 0.663441
305 0.604751 0.697736 -0.000739674 0.821457 -3.50615 -0.316815 0.657552 -0.228119
307 0.651197 0.702204 0.0504337 0.306866 -3.51434 0.186872 -0.141282 0.227556
311 0.751604 0.699416 0.0496076 0.343216 -3.49363 0.141159 0.433122 1.0115
312 0.703202 0.749216 0.0526424 0.363641 -3.50609 -0.627255 0.95034 -0.394958
315 0.84879 0.701972 0.0479462 0.389385 -3.50401 0.599181 -0.559685 0.164865
281 0.998622 0.700476 1.0006 0.346589 -3.49388 0.139728 0.302338 -0.596606
319 0.948001 0.702691 0.0530284 0.724219 -3.48484 0.512897 -0.261298 -0.855641
284 4.24522e-05 0.750875 0.0488969 0.423609 -3.47707 0.19722 0.219238 1.20003
323 0.0513219 0.800963 0.0532128 0.405204 -3.49452 -0.431073 0.175236 -0.516408
288 0.101707 0.750061 0.0514032 0.191633 -3.50652 -0.267293 -0.094562 -0.513115
327 0.150107 0.800585 0.0524344 0.307531 -3.51904 -0.0340315 -0.133058 -0.411948
296 0.298118 0.747115 0.0486543 0.669233 -3.5061 0.286367 0.324181 0.280656
331 0.251622 0.798454 0.0503111 0.284915 -3.50587 -0.23593 0.634663 -0.274494
333 0.299012 0.802502 1.00236 0.660461 -3.50634 0.452616 -0.468389 -0.699703
335 0.350811 0.799557 0.052842 0.237433 -3.52169 -0.152551 -0.209888 -0.543411
298 0.450453 0.751047 0.00241841 0.287344 -3.51644 -0.0301647 -0.349291 -0.0890748
339 0.452925 0.801529 0.0505379 0.412822 -3.51069 -0.269149 -0.54027 0.432059
304 0.50075 0.747885 0.0505599 0.273019 -3.51595 0.286684 0.262906 0.0820905
343 0.548037 0.800892 0.0495726 0.426135 -3.48579 1.11517 -1.37981 -0.0370666
308 0.597824 0.748248 0.0470287 1.06141 -3.4914 0.536856 0.953695 0.362364
347 0.652285 0.801097 0.049084 0.214201 -3.51586 -0.322594 -0.397126 0.31848
351 0.751831 0.800389 0.0515728 0.119672 -3.49456 -0.0592746 -0.361953 -0.331802
316 0.80104 0.748061 0.0526968 0.593005 -3.47897 -0.351542 1.25904 -0.0600433
320 0.896215 0.752919 0.0506867 0.743012 -3.50326 0.56141 -0.66071 -0.505437
355 0.847979 0.804739 0.0493624 0.99216 -3.43241 0.612882 -1.47038 0.128454
321 1.003 0.799092 1.0014 0.604898 -3.5038 -0.573698 0.415958 -0.71508
318 0.950494 0.749661 -0.00244151 0.216641 -3.49223 -0.0471646 -0.0312302 0.296266
359 0.949361 0.800101 0.048243 0.247677 -3.51349 0.634885 0.378743 0.235102
322 0.0485606 0.851229 -0.00133745 0.335339 -3.49072 0.485968 -0.255844 0.891793
324 0.996273 0.852625 0.0504991 0.587573 -3.50437 0.715024 -0.378435 0.0504474
363 0.0530159 0.901434 0.0477178 0.540685 -3.5096 -0.507285 -0.151557 0.658146
328 0.100067 0.849753 0.0509457 0.136295 -3.51012 0.117552 -0.11511 -0.0527274
365 0.0980189 0.896805 0.99651 0.994333 -3.48033 0.712251 0.983983 0.90395
367 0.14792 0.898559 0.049505 0.416632 -3.51385 0.502143 0.342018 -0.330481
332 0.200584 0.847241 0.049593 0.21343 -3.51596 0.341536 0.418592 0.00328966
371 0.25336 0.895899 0.0511073 0.762848 -3.49799 -0.733214 0.442296 -0.209232
330 0.248986 0.849853 -0.00240912 0.430681 -3.5106 0.0859548 0.00320107 0.658554
336 0.302101 0.849892 0.0505328 0.263954 -3.50984 -0.319846 -0.3773 -0.0518432
334 0.351293 0.848152 0.999339 0.307793 -3.50553 0.16441 0.580675 -0.0326206
340 0.398171 0.849518 0.05198 0.322262 -3.52257 0.36194 0.0625211 -0.0112331
375 0.349972 0.898443 0.050469 0.100196 -3.50483 0.240631 -0.186054 0.242587
377 0.403964 0.900752 1.00108 0.639681 -3.48058 -1.13728 -1.02351 -0.378156
379 0.452085 0.899658 0.0532562 0.514911 -3.50975 -0.493592 -0.0238222 -0.274535
344 0.50037 0.848497 0.0491466 0.276682 -3.48533 0.0427781 0.186644 0.994673
383 0.553233 0.900622 0.0493629 0.773463 -3.4979 -1.2451 -0.370233 0.483122
348 0.59812 0.848225 0.0475946 0.619318 -3.50287 0.735283 0.328368 0.512257
387 0.647199 0.90072 0.0492156 0.56454 -3.5029 0.680413 -1.1718 0.495832
352 0.702785 0.848472 0.0514961 0.521545 -3.45308 -0.279189 1.65613 -0.846165
391 0.74993 0.900448 0.0523044 0.248002 -3.49964 -0.121229 -0.326838 -0.511032
356 0.800976 0.848013 0.0524486 0.599538 -3.4532 -0.185975 1.00958 -1.11973
360 0.899736 0.850793 0.049363 0.186862 -3.51487 -0.114604 -0.0744607 -0.256686
395 0.849198 0.903215 0.0469874 0.647748 -3.50786 0.096063 -0.907712 0.658797
399 0.946484 0.901493 0.049261 0.231931 -3.50611 0.23261 -0.296572 0.00277444
3 0.0507219 -0.00018438 0.0476365 0.448 -3.488 -0.763104 -0.0351025 0.597232
364 -0.00169237 0.951145 0.0486912 0.119204 -3.53025 0.102096 0.0182527 -0.0195133
5 0.0955309 1.00123 1.00155 0.966741 -3.46983 1.1645 0.228983 -0.175977
7 0.153216 -0.000629198 0.0522181 0.702357 -3.52084 -0.492255 0.342706 -0.123097
366 0.149949 0.953426 1.00197 0.838975 -3.46797 -0.0975663 -1.51574 -0.384573
368 0.102649 0.950949 0.0468525 0.720405 -3.44939 -0.957257 -0.571015 0.790836
11 0.250351 0.999187 0.0522102 0.241021 -3.49697 -0.0149504 -0.266987 -0.511333
372 0.200689 0.948822 0.0531362 0.495814 -3.50559 -0.016429 -0.0935584 -0.726795
13 0.302826 1.00053 1.00226 0.640144 -3.47808 -0.519648 -0.757115 -0.914975
370 0.25022 0.94963 0.998715 0.329642 -3.50324 -0.117426 0.139226 0.957199
376 0.302329 0.947001 0.0508012 0.21784 -3.51495 -0.365488 0.629381 0.00608395
15 0.34977 0.999628 0.051617 0.189907 -3.48551 0.0442822 -0.692474 0.294813
380 0.398759 0.947009 0.0489171 0.402092 -3.51802 0.167555 0.350884 0.599688
21 0.501644 -0.00188673 1.00223 0.294452 -3.50961 -0.59544 0.0908149 -0.43811
378 0.44965 0.949047 1.00025 0.164912 -3.51434 0.40474 0.0685214 -0.228424
384 0.500367 0.950328 0.0515752 0.267224 -3.50014 -0.219836 -0.720993 -0.0847454
23 0.550385 -0.00417843 0.0529247 0.504678 -3.499 0.130531 0.661828 -0.523674
388 0.600164 0.948025 0.0515532 0.186778 -3.49103 0.0734336 0.277895 -0.894589
392 0.699868 0.948564 0.0542874 0.739734 -3.46181 -0.482908 0.905631 -1.13261
31 0.752301 1.00365 0.0512892 0.827025 -3.47865 -0.821334 -0.750645 -0.725745
396 0.79844 0.953247 0.0506387 0.585347 -3.48592 0.475042 -0.735516 -0.0250666
400 0.897579 0.952527 0.0481839 0.241065 -3.49527 0.648935 -0.593702 0.62999
39 0.948093 0.000272103 0.0509139 0.164638 -3.50187 0.185571 0.747887 0.0969544
398 0.94742 0.951929 -0.00101553 0.17095 -3.52227 0.325533 -0.212657 0.374891
402 0.0510051 0.0476982 0.100773 0.268881 -3.51213 -0.450627 0.35926 0.189683
404 1.00245 0.051314 0.153414 0.311222 -3.51169 -0.206953 -0.250133 -0.535951
406 0.150382 0.0523713 0.10013 0.49665 -3.51358 -0.430598 -0.869931 0.07071
408 0.102294 0.0508863 0.151072 0.348512 -3.49847 -0.85282 -0.505058 -0.171407
412 0.198116 0.0467555 0.152137 0.445961 -3.48165 0.163896 1.45441 -0.247958
410 0.252866 0.0504304 0.104531 0.738268 -3.51155 -0.670514 -0.160355 -0.441755
413 0.299089 -0.00200743 0.101348 0.274083 -3.50498 0.381654 0.187001 0.458711
416 0.299831 0.0496524 0.152585 0.184453 -3.51077 -0.160216 0.0544061 -0.0289096
414 0.350575 0.0532429 0.102643 0.625504 -3.51178 -0.239366 -0.828484 -0.199604
420 0.400478 0.0514639 0.150547 0.0900765 -3.50487 0.0698878 -0.0772069 0.241811
418 0.452307 0.0506972 0.102037 0.34321 -3.51705 -0.38831 -0.0720426 -0.293683
424 0.502838 0.0522823 0.152616 0.621725 -3.51263 -0.34046 -0.689396 -0.485801
422 0.550809 0.0503314 0.10088 0.18556 -3.52061 -0.0568328 -0.33845 -0.083344
423 0.550881 -0.00414083 0.149696 0.592686 -3.50749 -0.318644 0.853453 0.262559
425 0.60009 -0.00188985 0.0986072 0.189673 -3.51465 -0.0224932 0.0566322 0.679784
426 0.650406 0.0473819 0.100068 0.223281 -3.51421 -0.325192 0.623498 0.232033
428 0.599558 0.0501117 0.149765 0.201014 -3.51694 0.182448 -0.0601859 0.0280936
429 0.700225 1.00152 0.0985359 0.343625 -3.50591 -0.0708736 -0.813457 0.384548
432 0.701303 0.0492751 0.148027 0.190647 -3.52231 -0.0591881 -0.145164 0.378346
430 0.750042 0.0477691 0.099148 0.217186 -3.5056 0.11009 0.601005 0.245224
431 0.753058 1.00044 0.148095 0.228791 -3.51268 -0.438668 0.020795 0.286201
433 0.800129 0.997864 0.097673 0.397541 -3.49358 0.526314 0.463188 0.781025
436 0.800528 0.0506539 0.149506 0.162007 -3.51569 0.158934 -0.445899 -0.610219
434 0.851944 0.0487316 0.0971418 0.498297 -3.49128 -0.40357 0.313775 0.879818
435 0.849512 1.00082 0.149964 0.120613 -3.52882 0.0818637 0.0172954 -0.143455
437 0.901014 1.00372 0.0990159 0.392968 -3.51076 -0.33568 -0.997936 0.528126
440 0.901423 0.0522697 0.150084 0.102732 -3.51184 -0.424174 -0.0304769 0.302242
438 0.949945 0.0520435 0.103023 0.20672 -3.50327 0.351416 -0.0944394 -1.07839
441 1.00292 0.0994253 0.102385 0.158101 -3.52373 0.04775 -0.0216595 -0.480387
442 0.0521225 0.150706 0.101403 0.0681143 -3.52328 -0.31434 -0.164252 0.13713
443 0.0501832 0.0997082 0.151555 0.096305 -3.51519 0.442895 0.0846954 -0.0646874
445 0.100595 0.100191 0.0988874 0.313169 -3.50562 -0.0135962 0.129341 0.707056
446 0.153643 0.150831 0.101482 0.600648 -3.50934 -1.27948 0.0905066 -0.231835
447 0.146161 0.101164 0.153389 0.669458 -3.48293 0.930978 -0.0627859 -1.10989
448 0.100711 0.150957 0.150974 0.105737 -3.51503 -0.0540918 -0.0700767 -0.081531
449 0.200399 0.0999489 0.0987078 0.448741 -3.47643 0.46568 -0.216723 1.57973
452 0.198071 0.150513 0.152707 0.283631 -3.47487 0.787841 0.00646698 -1.0321
450 0.249909 0.150399 0.101638 0.123327 -3.51799 -0.259441 0.245332 0.0327791
451 0.250015 0.103732 0.15236 0.809789 -3.48289 -0.516731 -1.3723 -0.131666
453 0.298647 0.099377 0.100356 0.326041 -3.51773 0.222548 0.170877 0.303356
456 0.300811 0.148849 0.150603 0.268506 -3.51003 -0.384312 0.534349 -0.290925
454 0.352277 0.150459 0.100579 0.412138 -3.5222 -0.564011 -0.164556 -0.0111423
455 0.347959 0.100674 0.15092 0.245557 -3.50114 0.539038 -0.317253 -0.0448485
457 0.400715 0.100207 0.0988835 0.326744 -3.51609 0.00214677 0.115739 0.380635
460 0.403649 0.149337 0.148147 0.811094 -3.4767 -1.21904 1.20666 0.704875
458 0.448869 0.155882 0.0988826 0.631924 -3.49427 0.661458 -0.56886 -0.0887001
459 0.452998 0.103645 0.147182 0.591836 -3.46864 -0.721424 -0.922856 0.641342
461 0.501301 0.10079 0.0998394 0.11841 -3.50629 -0.169117 0.333623 -0.130175
464 0.502785 0.154765 0.148962 0.479307 -3.51773 -0.461157 -0.378592 -0.467402
462 0.550333 0.151398 0.0964912 0.261824 -3.52461 -0.0974328 -0.0636764 0.558027
463 0.548911 0.102295 0.151859 0.355533 -3.51576 -0.0703397 0.111686 -0.390571
465 0.597398 0.100353 0.101068 0.42479 -3.51433 0.353736 -0.156262 0.117736
466 0.64862 0.147659 0.0965966 0.628338 -3.5155 0.141399 0.287524 0.630309
467 0.655486 0.0994551 0.149299 0.872193 -3.4899 -0.713109 0.0831672 0.154727
468 0.59953 0.150009 0.148612 0.193761 -3.51561 0.227673 0.219573 -0.0144197
469 0.700439 0.0989861 0.09879 0.159224 -3.51928 0.215507 0.187865 -0.020661
472 0.703563 0.152823 0.147438 0.898212 -3.48446 -0.925929 -0.566399 -0.143823
471 0.749898 0.0980925 0.150763 0.401842 -3.51326 -0.173415 0.560014 -0.610439
470 0.75123 0.152753 0.100055 0.668382 -3.4912 -0.158503 -0.489174 -0.0270306
473 0.797655 0.0982601 0.0977358 0.643686 -3.50749 0.523035 0.248308 0.570024
476 0.803239 0.144621 0.147015 1.32576 -3.48185 -0.980735 1.35129 0.675319
474 0.852371 0.149268 0.0988029 0.259539 -3.50289 -0.451727 0.127642 0.480014
475 0.850157 0.0989706 0.15005 0.101532 -3.49546 0.149165 -0.219454 -0.573758
477 0.900358 0.101549 0.100327 0.184763 -3.51594 0.0486743 -0.427557 0.27089
480 0.901574 0.148667 0.149256 0.286137 -3.52457 -0.127024 0.328283 0.349896
444 0.0017685 0.149661 0.150361 0.128349 -3.52472 -0.0665028 0.238375 0.268983
478 0.953537 0.148009 0.101042 0.383222 -3.51848 -0.244498 0.488247 -0.0227523
479 0.952652 0.100938 0.151364 0.104384 -3.52841 -0.241523 -0.00254028 0.0854819
481 1.00085 0.201824 0.103387 0.446327 -3.5048 -0.0721109 -0.632344 -0.67721
483 0.0514753 0.199979 0.150986 0.222681 -3.51638 -0.0967808 0.508368 -0.0686333
485 0.100507 0.200795 0.101069 0.0996445 -3.50889 -0.0337029 0.364991 0.206747
487 0.15018 0.200059 0.152071 0.149893 -3.51205 -0.642647 0.205035 -0.0870241
486 0.148175 0.251513 0.0989473 0.196159 -3.50851 -0.38467 -0.166586 0.432294
489 0.198876 0.204863 0.100875 0.454119 -3.50509 0.431118 -1.10216 0.5721
491 0.249942 0.201852 0.152036 0.19352 -3.51778 -0.23781 -0.163348 -0.510529
492 0.197389 0.25235 0.150616 0.23009 -3.51747 0.162001 -0.311936 0.297079
490 0.250141 0.251876 0.100807 0.203486 -3.51961 -0.0566068 -0.276706 -0.118279
493 0.299592 0.199438 0.098955 0.347156 -3.5106 -0.261005 0.596885 0.385623
496 0.298499 0.253025 0.150668 0.261502 -3.5055 -0.213786 -0.670743 -0.225655
495 0.346525 0.201737 0.147789 0.529441 -3.48617 0.78167 -0.828951 1.02401
497 0.396856 0.203818 0.102572 0.606364 -3.5039 0.480181 -0.152816 -0.702194
499 0.452788 0.203069 0.151778 0.474172 -3.52182 -0.624926 -0.174159 -0.447995
498 0.447037 0.250378 0.10142 0.444536 -3.52116 0.0824357 0.177816 -0.187709
501 0.500691 0.204893 0.0971385 0.34275 -3.51842 0.150509 -0.167676 0.429054
503 0.55055 0.204728 0.146395 0.561559 -3.50985 -0.560367 -0.72228 0.666227
502 0.5537 0.253046 0.0974384 0.602495 -3.50885 -0.630484 -0.360863 0.0589805