ITEM: TIMESTEP
1750
ITEM: NUMBER OF ATOMS
4000
ITEM: BOX BOUNDS pp pp pp
1.4897370610635603e+00 3.4610262938936366e+01
-6.4244340562490621e-01 3.6742443405624854e+01
-6.3449431778662557e-01 3.6734494317786584e+01
ITEM: ATOMS id xs ys zs c_csym c_peratom fx fy fz
4 0.00151701 0.0495388 0.0497935 0.100494 -3.5052 -0.0270259 0.323179 0.271971
1 0.00430199 -0.000531164 0.99941 0.166173 -3.51509 -0.216347 -0.15935 -0.152619
3 0.0549913 1.00113 0.0462179 0.493376 -3.50504 -0.90543 -0.540388 0.584097
8 0.101219 0.0481687 0.0465328 0.3846 -3.4782 -0.172577 0.166536 1.31506
5 0.100447 -0.00141443 0.996034 0.271792 -3.48742 -0.0571625 0.777074 0.87663
7 0.150051 -0.000428062 0.0486536 0.101507 -3.48443 0.190593 0.646942 -1.02953
6 0.148841 0.0523571 0.997461 0.488584 -3.39726 -0.107305 -3.02833 0.479389
12 0.20025 0.0480835 0.0490555 0.21235 -3.48189 -0.552571 -0.128269 -0.676946
11 0.245612 0.000128058 0.0478833 0.578338 -3.47964 1.47532 -1.01367 1.33825
16 0.299428 0.0541141 0.0504854 0.657213 -3.45973 -0.362841 -1.1715 -0.378246
15 0.34898 -0.000521985 0.0491342 0.261639 -3.50452 -1.14928 -0.154686 1.09642
20 0.397376 0.05147 0.0519215 0.368693 -3.4995 0.323436 -0.614832 -1.01843
19 0.450812 -0.00141921 0.0494268 0.328907 -3.51329 -0.707619 0.862114 0.0181788
24 0.4997 0.0506819 0.0499737 0.19425 -3.48958 -0.885239 0.306504 -0.500176
28 0.599472 0.0488411 0.0476547 0.28258 -3.51127 -0.234252 0.358882 -0.133136
25 0.603082 0.000298513 -0.00167549 0.548242 -3.48502 -0.751527 -0.138234 0.0943742
32 0.698688 0.0512005 0.0500776 0.296609 -3.5041 -0.00413266 -0.576003 -0.639487
26 0.648803 0.0493282 -5.95987e-05 0.204132 -3.50533 0.781505 0.158646 -0.38278
29 0.702056 -0.00206814 0.000640602 0.299843 -3.49539 -0.793341 1.19903 -0.0598105
36 0.794843 0.050224 0.0498812 0.507795 -3.46217 0.917909 0.482549 0.358966
31 0.750067 6.52126e-05 0.0487853 0.19202 -3.50094 -0.299951 -0.523939 1.1292
30 0.74791 0.0511995 -0.000663808 0.253922 -3.48674 0.483797 -0.23385 -0.830677
35 0.850266 1.00059 0.0497181 0.243001 -3.50338 -0.618987 0.0429731 -0.0986773
40 0.901698 0.0458494 0.048336 1.00748 -3.49336 -0.196109 1.27434 0.347506
37 0.897366 1.00096 0.99854 0.434746 -3.50519 0.22912 -0.304519 0.154799
38 0.950924 0.04954 0.999147 0.159405 -3.4862 0.510161 0.947728 -0.0674952
42 0.0492039 0.149553 1.00076 0.303301 -3.51433 0.269799 0.14523 0.0580745
43 0.0489035 0.0993511 0.051426 0.297249 -3.51381 0.11899 0.141265 -0.67521
44 -0.000676285 0.150351 0.0486209 0.157782 -3.51028 0.556548 -0.344291 0.237192
45 0.102616 0.100259 1.00008 0.288208 -3.4804 -0.350918 0.0410051 -0.745058
47 0.150657 0.0957966 0.0498267 0.74444 -3.47442 0.151656 0.959647 0.921396
48 0.102345 0.146991 0.049622 0.450687 -3.51061 -1.05681 0.950551 -0.321956
49 0.196747 0.0970753 -0.00121709 0.482596 -3.4904 0.036886 0.846923 -0.358836
52 0.196194 0.149217 0.0449439 0.716976 -3.48411 0.653617 -0.0413155 1.31673
51 0.249161 0.102621 0.0486171 0.319888 -3.49806 -0.172198 -1.07379 -0.00407534
50 0.246173 0.150349 -0.00473857 0.512563 -3.49106 0.716606 0.356542 0.628607
56 0.298422 0.150113 0.0500331 0.239728 -3.47878 0.149876 1.04572 -0.717226
54 0.35213 0.148685 -0.00331515 0.370862 -3.49646 -0.619717 0.676346 -0.609051
55 0.348392 0.102578 0.0504107 0.311293 -3.46494 0.417739 -1.16585 0.0667772
60 0.397991 0.149599 0.0486526 0.126061 -3.47272 -0.717225 0.238204 0.557368
58 0.445523 0.151618 1.00013 0.390213 -3.46806 1.13871 -1.45098 -0.0943742
59 0.445839 0.100732 0.0518581 0.294716 -3.48578 0.849507 -0.0393297 -1.46474
64 0.49819 0.149779 0.0535442 0.456923 -3.50722 -0.421004 0.570948 -1.12077
61 0.499205 0.10357 -0.000924863 0.457185 -3.47701 -1.18955 -1.56795 0.296017
63 0.546829 0.10086 0.0490306 0.213391 -3.49041 0.753909 0.707878 0.703461
68 0.600778 0.152547 0.0514535 0.27 -3.51743 -0.267881 -0.597875 -0.172026
62 0.548551 0.15307 0.000849266 0.387576 -3.49223 0.716012 -0.984128 -0.337598
65 0.598239 0.0994757 1.00081 0.19302 -3.51125 0.121067 0.500637 -0.00523893
67 0.648844 0.0987829 0.0495981 0.164008 -3.50511 -0.000543563 0.609461 0.493742
72 0.698872 0.147821 0.0538041 0.516078 -3.46973 0.709188 1.56551 -0.654124
66 0.654988 0.149077 1.00139 0.592107 -3.51318 -1.17694 0.325045 -0.286149
69 0.703009 0.100953 -0.00098413 0.542556 -3.44448 -1.33665 -0.18115 -0.0698605
71 0.748127 0.0979509 0.0510633 0.304014 -3.47624 -0.118169 1.25079 -0.990623
73 0.795299 0.097954 0.998185 0.593404 -3.49947 0.568721 0.616096 0.640733
76 0.796746 0.148643 0.0486934 0.294804 -3.5005 0.36835 0.592014 0.486393
75 0.849596 0.100252 0.0493454 0.221102 -3.50436 -0.418571 -0.250209 0.309087
77 0.895956 0.0985369 0.000591618 0.799649 -3.48791 0.871687 0.342317 0.00105987
80 0.901368 0.148037 0.0512711 0.340335 -3.49222 -0.259169 0.0929599 -1.0597
74 0.848508 0.147918 1.00025 0.105098 -3.51866 0.145285 0.473237 0.103493
41 0.999974 0.10019 0.998542 0.24001 -3.46968 0.33112 0.288358 0.691574
79 0.951104 0.100487 0.0495629 0.230229 -3.51438 -0.32381 -0.642073 -0.651966
83 0.0554397 0.201141 0.048749 0.589369 -3.50079 -0.520228 -0.30704 0.126405
87 0.149536 0.200497 0.0464062 0.256701 -3.49428 0.447295 0.266309 1.64365
91 0.250248 0.199453 0.0495238 0.167245 -3.50943 -0.141577 -0.0696245 -0.319281
92 0.201001 0.248781 0.0468312 0.157717 -3.50367 0.219388 0.278461 0.57601
95 0.352583 0.197798 0.0461484 0.605425 -3.48215 -0.301694 0.921009 0.475106
93 0.302758 0.201437 0.998239 0.419425 -3.48981 -0.726861 -1.24028 -0.517059
99 0.446633 0.201255 0.0486005 0.180019 -3.51482 0.342208 -0.438454 0.31474
103 0.549246 0.202822 0.0517359 0.339047 -3.51462 -0.129365 -0.405998 -0.163509
107 0.651919 0.199036 0.0529437 0.212173 -3.51343 0.0123829 0.664014 -0.599189
106 0.648461 0.250748 1.00053 0.335677 -3.50522 0.848232 -1.1713 -0.224457
112 0.701524 0.251739 0.0499237 0.192174 -3.50059 0.176324 -0.719252 0.501854
111 0.751038 0.202106 0.0490863 0.431372 -3.49185 -0.900362 -1.30192 1.00697
116 0.79959 0.249226 0.0495394 0.204184 -3.51142 0.64494 -0.152952 0.423885
115 0.850129 0.198777 0.0503708 0.101822 -3.52351 -0.512198 0.0833005 -0.226043
120 0.900425 0.249413 0.0485655 0.147307 -3.46975 -0.0959215 -0.145866 1.55841
84 0.999914 0.248107 0.0494529 0.273955 -3.51768 0.112422 0.0377045 0.207526
119 0.947233 0.199569 0.0493762 0.287034 -3.50811 0.794601 -0.34668 -0.176699
81 0.00154682 0.201739 0.998744 0.315065 -3.50565 -0.113337 -0.673276 0.641279
123 0.0522134 0.298882 0.0471478 0.356713 -3.51696 -0.0399324 0.310071 0.214979
88 0.105161 0.250873 0.0504098 0.434127 -3.44815 -0.562609 0.108639 -0.912217
125 0.10247 0.301005 -0.000650895 0.223653 -3.51015 -0.11827 -0.215581 0.437652
127 0.154268 0.29619 0.048744 0.624102 -3.43145 -0.44265 1.51091 -0.311833
129 0.202858 0.298225 -0.00172884 0.101074 -3.50935 -0.0585498 0.682303 -0.182331
131 0.254886 0.297933 0.0489991 0.261305 -3.52295 -0.27329 -0.0437383 0.350447
90 0.253311 0.249916 -0.00159049 0.247287 -3.49136 -0.448562 -0.686661 -0.297865
96 0.304381 0.249008 0.047991 0.387512 -3.49772 -0.479519 -0.827139 0.554779
135 0.347753 0.297968 0.0465684 0.381536 -3.47577 0.0317125 -1.29914e-05 1.17618
100 0.398268 0.248897 0.0472571 0.0843492 -3.49796 0.0663101 0.665606 -0.367486
139 0.446103 0.300077 0.0491581 0.241399 -3.51185 0.524684 -0.411874 -0.221609
104 0.498495 0.25118 0.0496858 0.120226 -3.50813 -0.677903 -0.472472 0.294169
108 0.598636 0.248448 0.0497305 0.297076 -3.46135 -0.0714542 1.01946 -0.270978
143 0.548345 0.301399 0.0511972 0.332709 -3.49405 -0.24517 -0.63642 -0.911526
147 0.653481 0.298534 0.0463954 0.620288 -3.48311 -1.1759 0.75718 0.402457
149 0.699936 0.299459 0.998607 0.210901 -3.50434 0.673725 -0.241216 0.00113508
151 0.75346 0.299708 0.0487368 0.283347 -3.50757 -0.494624 -0.254824 0.817268
153 0.804103 0.301057 1.00032 0.20313 -3.51726 -0.277945 -0.157718 -0.300842
155 0.850751 0.301035 0.0503914 0.135605 -3.50017 0.461118 -0.0892246 -0.661657
157 0.902418 0.299798 0.00209645 0.261793 -3.51825 -0.892868 0.392839 -0.422834
159 0.95008 0.29965 0.0523271 0.263778 -3.4876 0.540416 1.10768 -0.715146
163 0.0526119 0.402606 0.0509593 0.279797 -3.52236 -0.163013 -0.640814 -0.112115
128 0.101275 0.351925 0.0492078 0.331641 -3.51466 0.25917 -0.691066 -0.264965
167 0.156973 0.398758 0.0486652 0.439072 -3.51325 -0.410084 0.279675 -0.0776499
132 0.203963 0.34741 0.0479315 0.18426 -3.50726 -0.278155 -0.128485 0.830626
171 0.251248 0.39908 0.0520493 0.442861 -3.46373 1.24469 0.435407 -1.87723
130 0.2553 0.348173 -0.000248787 0.397536 -3.48172 -1.0016 0.383635 -0.282913
136 0.300326 0.350192 0.0511931 0.323786 -3.4371 0.139504 0.372788 -0.433426
175 0.351294 0.39559 0.0461943 1.47049 -3.45614 -1.24132 1.93764 0.638074
140 0.398163 0.347448 0.0491788 0.270709 -3.47669 0.685388 0.832323 -0.345362
179 0.452521 0.398211 0.0495259 0.425515 -3.49174 -0.958415 0.679734 0.904016
138 0.452758 0.351958 0.000314715 0.563248 -3.48165 -0.495053 -0.784679 -0.961179
144 0.499643 0.349107 0.0494579 0.183027 -3.49238 0.286916 0.500008 0.205479
183 0.551776 0.401251 0.0502036 0.250167 -3.50238 -0.4746 -0.633102 -0.171655
148 0.598872 0.349017 0.0483212 0.2303 -3.51158 0.465286 -0.335316 0.2227
146 0.652652 0.350619 0.996821 0.510856 -3.49146 -0.368047 -0.58405 0.955062
187 0.649529 0.397676 0.0480655 0.439432 -3.46362 0.829031 1.60286 0.777198
152 0.700918 0.348226 0.0496738 0.191433 -3.515 0.158692 0.190604 0.0038877
191 0.752758 0.401798 0.048769 0.151054 -3.48617 -0.18152 -0.531719 0.807412
150 0.751719 0.349904 0.00201124 0.12336 -3.52419 0.019719 -0.179856 -0.487911
156 0.80294 0.349584 0.0494424 0.199226 -3.5044 -0.611086 0.153994 1.21146
160 0.904866 0.352412 0.0501559 0.236959 -3.51265 -0.503597 -0.181155 0.0822597
195 0.853547 0.402259 0.0499588 0.0887655 -3.50933 -0.357366 -0.0468938 -0.0471349
154 0.851158 0.353253 1.00204 0.347366 -3.46746 0.125724 -1.27425 0.0313146
124 0.0024928 0.350602 0.0498543 0.179475 -3.51342 -0.0638005 -0.108669 0.654994
158 0.951227 0.350047 1.00055 0.105754 -3.5052 -0.73703 -0.398916 1.06108
199 0.956121 0.400283 0.0488686 0.632516 -3.45796 -0.859988 -0.197546 0.357875
161 -0.00109525 0.399225 1.0023 0.417377 -3.47181 1.06407 0.332131 -1.52109
203 0.0511823 0.499762 0.0497264 0.131332 -3.50023 0.12388 0.0276101 -0.0224285
164 0.00327253 0.451053 0.0489083 0.259418 -3.51912 -0.65709 -0.0215584 0.736391
168 0.103632 0.451677 0.048946 0.195551 -3.50304 0.0159987 -0.0865167 0.486015
205 0.100364 0.500599 -0.00157679 0.257404 -3.50076 0.407229 -0.321509 0.216176
207 0.155328 0.499277 0.0482793 0.408322 -3.50098 -0.693565 -0.0988876 0.535383
172 0.203309 0.449843 0.0489776 0.0703496 -3.51486 0.256485 -0.319146 -0.249747
176 0.298944 0.450641 0.0498822 0.262033 -3.48923 0.673167 -0.770984 0.109047
215 0.351076 0.499786 0.051338 0.293832 -3.48274 -0.326379 1.08189 -0.361183
174 0.349429 0.451802 0.000186748 0.399369 -3.50974 0.0579065 -0.274692 0.237903
180 0.399382 0.449251 0.0521283 0.251902 -3.52007 0.0681644 0.0765585 -0.285529
217 0.400479 0.500279 1.00196 0.257531 -3.51854 -0.510752 0.112328 0.0146891
184 0.500558 0.452399 0.050596 0.23568 -3.49724 -0.654073 -0.229658 0.564583
188 0.597386 0.45064 0.0479015 0.817551 -3.49368 1.44216 0.222037 1.08044
227 0.650815 0.503756 0.0529624 0.670096 -3.46893 -0.36128 -0.826758 -1.02299
192 0.701653 0.455129 0.0493086 0.806278 -3.43232 0.370045 -1.38247 0.176547
196 0.802828 0.453021 0.0497198 0.206862 -3.49535 -0.386441 -0.822334 -0.430002
231 0.755826 0.500544 0.0490469 0.658113 -3.47798 -0.552943 1.39263 -0.336509
190 0.754818 0.451988 0.999172 0.302199 -3.52047 -0.408155 -0.124964 -0.0734371
233 0.80233 0.501973 1.00032 0.0571501 -3.49755 0.127209 -0.043733 -0.0658093
194 0.849513 0.453117 1.00202 0.320012 -3.46571 0.462993 0.570639 -0.285777
200 0.902076 0.452603 0.0526449 0.18822 -3.49554 -0.224155 -0.0741304 -0.748297
235 0.849929 0.504542 0.052971 0.437986 -3.49336 -0.218975 -0.807764 -0.66472
198 0.949186 0.451439 1.00234 0.19673 -3.51018 0.679329 0.180723 -0.717248
239 0.951009 0.502705 0.0526838 0.293301 -3.51797 -0.167888 -0.256333 -0.120027
204 0.000765389 0.551849 0.0529679 0.275411 -3.51117 0.0826736 0.275993 -0.673517
202 0.049148 0.549389 0.000309682 0.224754 -3.51186 0.185676 0.799841 0.152308
208 0.0996663 0.546787 0.0517109 0.683704 -3.47233 0.833879 1.51155 -1.07636
211 0.25014 0.501635 0.0501086 0.127101 -3.49729 -0.367205 -0.12322 -0.0917035
212 0.1986 0.550483 0.0508421 0.290843 -3.47827 0.407149 -0.182532 -1.27689
210 0.251894 0.550924 1.00114 0.182306 -3.48924 -0.920701 0.371791 0.12648
216 0.295839 0.550378 0.0544924 0.890056 -3.45753 1.27911 0.899216 -1.48421
220 0.395344 0.552496 0.0499555 0.507614 -3.50224 1.00516 0.305331 0.64578
219 0.449119 0.504942 0.0513493 0.698434 -3.44945 -0.483178 -1.96905 0.116436
224 0.496748 0.551071 0.0517361 0.462526 -3.4742 0.749413 0.0555166 -0.901959
223 0.551929 0.501951 0.0515609 0.380837 -3.50539 -0.652034 -0.214733 -0.589843
228 0.599155 0.550588 0.0511183 0.255794 -3.48824 0.66399 0.240981 -1.35247
225 0.601576 0.498675 1.00076 0.248226 -3.52372 -0.339214 0.216654 -0.212353
226 0.652056 0.547408 -0.00160541 0.541988 -3.5041 -0.34668 0.488727 0.42551
232 0.705611 0.553945 0.0500044 0.876312 -3.4888 -0.371564 -1.07318 0.000257567
236 0.796914 0.555297 0.0517843 1.12354 -3.41534 1.51618 -0.664431 -0.614833
237 0.898552 0.499335 0.00184372 0.363948 -3.51465 0.473255 0.736011 0.1168
240 0.901771 0.552024 0.0503249 0.216668 -3.51897 -0.456321 -0.0262394 0.300195
238 0.949946 0.549387 1.00072 0.164018 -3.50145 0.0674738 0.45161 0.414208
243 0.0525954 0.599553 0.0531618 0.415298 -3.48593 -0.996518 0.719027 -0.662893
244 -0.00154783 0.649124 0.0526694 0.395186 -3.48284 1.24202 0.992145 -0.623629
247 0.150135 0.600415 0.0481559 0.411984 -3.42641 -1.00109 -0.621595 0.266769
248 0.0993092 0.651807 0.0504049 0.210695 -3.44533 0.0256472 -0.328639 0.754652
252 0.189746 0.650547 0.0507869 2.23982 -3.37186 3.64828 -1.00194 0.202854
251 0.251008 0.600922 0.0524773 0.530786 -3.49501 -1.10551 0.805185 0.0349677
256 0.30049 0.64956 0.0505453 0.580317 -3.43778 -0.774265 0.423168 0.509562
255 0.348527 0.60337 0.0502918 0.377266 -3.48684 -0.616811 -0.879711 0.74226
253 0.300014 0.60239 1.0027 0.243088 -3.46757 0.0566516 -1.23876 -0.296829
254 0.349207 0.65141 0.00111036 0.180294 -3.49984 0.673203 0.703576 0.433712
260 0.398582 0.648411 0.0556953 1.04044 -3.40773 0.399625 0.325234 -1.42955
259 0.449557 0.603346 0.0526156 0.342269 -3.48857 -0.055262 -0.926134 -0.667966
258 0.44721 0.650505 0.00116109 0.261411 -3.4819 0.117593 0.0746361 -0.287061
264 0.501035 0.651481 0.0532407 0.31542 -3.48438 -0.382559 -0.889977 -0.837233
263 0.554277 0.600708 0.0489571 0.712903 -3.49258 -1.44591 0.0488274 0.854245
265 0.599411 0.598882 -0.00202657 0.391506 -3.50704 0.73903 -0.49886 0.844488
268 0.602641 0.645367 0.0514962 0.951332 -3.4545 -0.589608 1.28665 -0.0973328
266 0.648217 0.650593 1.00194 0.307443 -3.52247 0.318101 -0.545877 -0.549407
267 0.651173 0.59887 0.0485814 0.298382 -3.47902 -0.139704 -0.163276 -0.302725
269 0.702585 0.600846 -0.00236801 0.455795 -3.50024 -0.0894756 -0.116938 0.776709
272 0.701106 0.646391 0.0512615 0.739869 -3.49297 -0.657247 1.26255 0.422956
271 0.751588 0.602237 0.0546311 0.608041 -3.40743 0.274563 0.233407 -0.860121
276 0.802659 0.652138 0.0530609 0.23971 -3.51738 0.0551868 -0.342726 -0.15263
270 0.751552 0.652653 0.00360421 0.532557 -3.50231 0.0448618 -1.06273 -0.114212
273 0.800633 0.60112 1.00121 0.202871 -3.50184 0.120909 0.442705 -0.520928
275 0.85246 0.602671 0.0503951 0.319337 -3.51638 -0.512311 -0.268953 0.310543
277 0.901578 0.601885 0.00310242 0.236475 -3.50182 -0.0304163 -0.026274 -0.903704
280 0.901642 0.65191 0.0551236 0.334095 -3.48195 -0.197341 0.508126 -1.82773
274 0.853095 0.652825 0.00090048 0.249564 -3.48505 0.352697 -0.945435 0.317937
279 0.95045 0.601918 0.0514814 0.161398 -3.49877 -0.114442 -0.307773 0.261425
283 0.0517009 0.700802 0.0517668 0.222661 -3.49181 -0.791438 0.22358 -0.817193
284 -0.00069619 0.751041 0.0490277 0.359553 -3.49891 0.578703 0.51597 0.269373
287 0.145475 0.69656 0.0500146 1.15065 -3.4275 1.28811 1.63705 0.0106669
288 0.0998663 0.749899 0.0506747 0.141397 -3.51484 0.449939 -0.183361 -0.12482
291 0.243164 0.70141 0.0523566 0.77727 -3.46299 1.2338 -0.938265 -0.0380522
295 0.34612 0.702058 0.0527441 0.368093 -3.46058 0.622623 -0.493893 -1.60074
294 0.348096 0.752481 0.000612331 0.113522 -3.50725 -0.148672 -0.959964 0.0866019
296 0.298303 0.749663 0.0500269 0.296986 -3.50982 -0.561448 0.708412 0.176494
299 0.447871 0.697753 0.0504366 0.386717 -3.50862 0.321106 0.921285 0.25649
303 0.547631 0.700116 0.0515102 0.371816 -3.47149 1.7744 -1.24589 -0.53051
305 0.59761 0.699095 0.00374612 0.519594 -3.50072 0.829123 0.592416 -0.838251
308 0.601611 0.751459 0.0522572 0.280959 -3.50473 -0.183994 -0.424083 -0.550288
307 0.649386 0.699985 0.0514654 0.0916378 -3.5139 0.0970001 0.161705 0.0496637
306 0.651829 0.748137 -5.4523e-05 0.428616 -3.50029 -1.41025 0.390408 0.856168
309 0.699674 0.69828 1.0029 0.2978 -3.47566 -0.644514 -0.000945145 -1.29659
311 0.750034 0.701019 0.0491932 0.31579 -3.50942 -0.103452 -0.0660837 0.559184
313 0.804587 0.697298 1.00229 0.785897 -3.48383 -0.508634 0.997308 -0.133224
315 0.853451 0.701022 0.0542347 0.381276 -3.50588 -0.980008 0.0211756 -0.57359
320 0.897882 0.751591 0.0512698 0.325013 -3.50514 1.11713 0.0541022 0.0091378
317 0.89878 0.702697 1.00263 0.261485 -3.46636 0.43371 -0.961175 -0.0395451
319 0.951029 0.703951 0.0539509 0.440491 -3.47769 -1.12831 -0.33292 -1.08667
323 0.0507181 0.800229 0.0517761 0.224872 -3.50366 0.373959 0.209517 -0.25923
321 1.00533 0.803965 0.999137 0.885079 -3.4811 -1.17401 -1.11092 -0.197798
327 0.152843 0.801394 0.0485981 0.221535 -3.50159 -0.207213 -0.794326 0.530853
292 0.201299 0.748978 0.0517006 0.321379 -3.45627 -0.503436 0.237486 -0.339924
331 0.249063 0.799915 0.0514866 0.198374 -3.49963 -0.282237 -0.000291382 0.0373592
333 0.295498 0.80326 1.0015 0.618228 -3.50517 0.636518 -0.902686 0.0374558
335 0.347848 0.801016 0.0497197 0.0793384 -3.52278 0.214187 0.327572 0.203459
300 0.396501 0.749029 0.0510499 0.416547 -3.49421 0.942732 0.823599 -0.614228
339 0.453982 0.799922 0.0489253 0.79793 -3.49434 -1.26806 -0.759195 -0.123644
337 0.398774 0.801668 1.00022 0.106886 -3.51112 0.310086 -0.609365 0.164115
304 0.502198 0.74973 0.0499177 0.228594 -3.47878 -1.2203 -0.716353 0.301904
343 0.551855 0.797738 0.0501342 0.414064 -3.50801 -0.524675 0.637128 0.524659
312 0.697752 0.750204 0.0513384 0.186536 -3.47788 0.346793 0.452879 -0.527992
347 0.650028 0.801837 0.0502283 0.264114 -3.46182 -0.596283 -1.55781 -0.54767
349 0.696762 0.801743 -0.00266345 0.647998 -3.48366 0.886467 -1.4176 0.255446
351 0.747728 0.798658 0.0492743 0.122652 -3.51803 -0.33788 0.471906 0.45201
316 0.799883 0.750149 0.0503408 0.171975 -3.52014 0.331835 -0.233607 0.313106
355 0.85278 0.80118 0.0475867 0.811369 -3.44164 -1.21936 0.305136 1.48672
359 0.951807 0.799952 0.0504544 0.299439 -3.49666 -0.444575 0.881164 0.175688
322 0.052423 0.850191 -0.00200156 0.218619 -3.45225 0.22268 -0.716709 0.352833
324 1.00113 0.847718 0.0497134 0.540369 -3.49822 0.903456 1.42411 0.426247
363 0.0539289 0.900062 0.0475088 0.187882 -3.47557 -0.779556 0.357974 0.796171
328 0.103864 0.850324 0.0476155 0.445619 -3.50405 -0.591894 -0.340631 0.962774
365 0.0986807 0.901714 0.999095 0.347229 -3.48844 0.977385 -0.838256 0.187238
367 0.146713 0.901902 0.0499507 0.530106 -3.48007 0.617947 -0.175651 0.562671
326 0.154952 0.851588 1.00155 0.832905 -3.44777 -1.09831 0.168617 -0.968764
332 0.200971 0.852955 0.0506147 0.332593 -3.49193 0.0598843 -1.29109 -0.343276
371 0.247616 0.904418 0.046796 0.876862 -3.48373 0.0736772 -1.09895 0.956301
330 0.248221 0.853324 -0.00240675 0.459662 -3.45978 0.0426501 -0.140864 0.87445
336 0.299709 0.853063 0.0488085 0.218282 -3.51216 -0.315587 -0.613889 0.235757
375 0.350739 0.898508 0.0492217 0.407376 -3.46924 -0.87767 1.8671 0.457569
373 0.297611 0.900188 1.00065 0.32576 -3.48533 0.804051 0.723205 -0.420658
340 0.398339 0.852072 0.0505021 0.243671 -3.49141 0.0644949 0.219088 -0.482134
377 0.395848 0.902753 0.00123679 0.398224 -3.49587 1.24872 -0.727053 -0.205354
379 0.448677 0.901584 0.0500896 0.113002 -3.49751 0.0647184 -0.395736 0.0745264
344 0.500345 0.851585 0.0492043 0.213749 -3.49061 -0.0676259 -0.757775 0.565192
383 0.547721 0.901656 0.0505372 0.0801243 -3.52349 0.243661 0.102674 0.274913
348 0.598164 0.850548 0.0499439 0.112321 -3.52822 0.0758409 -0.105599 0.30481
385 0.599752 0.901583 0.00146539 0.226432 -3.49806 -0.166938 -0.314673 -0.137491
387 0.648172 0.90055 0.0483423 0.181716 -3.49146 -0.0206469 0.169724 1.45113
352 0.695777 0.84821 0.0496139 0.344647 -3.42642 1.40474 0.380007 0.6497
346 0.646036 0.850051 -0.00112497 0.274421 -3.50534 0.429881 -0.251992 -0.165447
389 0.7002 0.896594 -0.00127997 0.284813 -3.51084 -0.0107089 0.667163 0.610414
391 0.748543 0.898702 0.0506688 0.0508494 -3.52334 0.18137 -0.105878 0.23726
356 0.79747 0.848652 0.0512927 0.174288 -3.52083 0.283441 -0.0988597 0.235432
350 0.749639 0.848869 0.999148 0.122 -3.50876 -0.13546 -0.560104 0.413856
393 0.798205 0.898355 1.00205 0.11638 -3.48909 -0.237043 0.37684 -1.29997
360 0.900109 0.853873 0.0494044 0.288701 -3.51304 0.178972 -0.551294 0.258924
395 0.849939 0.900292 0.0542251 0.578547 -3.50324 -0.328891 -0.203659 -0.542899
354 0.845497 0.851473 0.00049135 0.553225 -3.49958 0.76164 -0.140916 0.707211
397 0.896813 0.901285 1.0003 0.251775 -3.51717 0.0991228 -0.203058 -0.0816902
399 0.949157 0.902639 0.0481865 0.399274 -3.51104 0.680672 -0.122583 0.297254
361 0.0043346 0.899592 1.00109 0.414633 -3.51147 -0.232573 0.366066 -0.220278
364 1.00359 0.95023 0.0513852 0.441265 -3.49827 -0.312336 -0.360275 -0.757869
366 0.146751 0.948774 0.999478 0.265718 -3.49045 0.978555 1.07704 -0.822722
368 0.103655 0.950509 0.0498388 0.481657 -3.47944 -0.933561 0.319085 -0.996931
372 0.197879 0.950382 0.0496288 0.140992 -3.47755 0.0522024 -0.628297 0.694967
376 0.299691 0.951322 0.0506992 0.264146 -3.51526 -0.0330966 -0.414542 -0.181308
380 0.398098 0.950703 0.0513425 0.184844 -3.51148 0.0385329 -0.658638 -0.108548
384 0.499234 0.952209 0.0506163 0.16011 -3.48861 0.306677 -0.790059 -0.514509
23 0.546039 1.00225 0.0508999 0.421514 -3.47563 0.479248 0.14997 -1.15249
388 0.598665 0.953881 0.0477116 0.432324 -3.50791 0.17804 -0.45564 0.526137
27 0.650099 -0.00131196 0.0470292 0.338948 -3.49635 -0.206548 0.151494 0.60812
392 0.697806 0.949343 0.0491181 0.18013 -3.50792 0.565083 -0.43721 0.1106
386 0.65031 0.947996 0.999181 0.164526 -3.50768 -0.0800872 -0.148203 -0.691364
396 0.799214 0.948828 0.0527749 0.187472 -3.51063 -0.0211444 0.394132 -0.959594
390 0.749916 0.948925 0.000556646 0.0898225 -3.50513 -0.441472 0.434925 -0.327387
33 0.799855 0.00122552 0.00174236 0.292961 -3.51112 -0.157364 -0.759921 -0.409791
400 0.898841 0.951571 0.0472064 0.427751 -3.50417 0.372426 0.30105 0.92787
39 0.955007 0.999642 0.048461 0.556688 -3.50016 -0.556748 -0.348012 -0.0594274
398 0.951017 0.948233 0.99576 0.777257 -3.50976 0.185571 0.279286 0.71797
402 0.0511723 0.0493171 0.0983745 0.235787 -3.47943 -0.688987 -0.206502 0.990019
404 0.000436916 0.050334 0.151225 0.151507 -3.50081 0.175397 0.194503 -0.84125
401 1.0028 0.00129841 0.0981682 0.185196 -3.50699 -0.390075 0.181776 0.396828
403 0.0498829 0.000334645 0.150636 0.154313 -3.474 0.0604823 -0.347535 -1.4921
406 0.148857 0.0505234 0.100887 0.2151 -3.51818 -0.107602 -0.161399 -0.161591
408 0.0958906 0.0484739 0.150489 0.434132 -3.4637 1.26742 0.370278 1.02534
405 0.0979088 0.00102894 0.099808 0.23283 -3.50844 0.785556 0.241587 -0.695195
407 0.147139 0.000513266 0.151508 0.178372 -3.51559 0.0143595 0.0641347 -0.195554
412 0.197674 0.0497702 0.149261 0.252828 -3.50777 0.499102 0.00716432 -0.320474
410 0.251231 0.0499128 0.098896 0.317669 -3.50226 -0.533092 -0.0966217 -0.384825
409 0.198147 0.99938 0.0998604 0.0917334 -3.52413 -0.0351095 0.478673 0.230785
413 0.298709 0.996907 0.10342 0.632167 -3.46567 0.256067 0.61866 -0.257534
416 0.297882 0.050629 0.151534 0.119504 -3.51642 0.120781 -0.456914 -0.606679
414 0.346867 0.0491393 0.100051 0.254778 -3.50068 0.225767 0.492206 0.127407
420 0.400151 0.0481436 0.151919 0.289678 -3.48688 -0.745627 -0.337301 -1.18869
418 0.449821 0.0485972 0.0999464 0.178227 -3.52407 -0.270411 -0.126118 -0.0294348
417 0.398309 0.997935 0.0987247 0.247127 -3.51074 0.0853408 0.877385 0.648062
419 0.449031 -0.000326881 0.148789 0.133742 -3.5211 0.114042 -0.587944 0.508898
424 0.499582 0.0507676 0.149875 0.186866 -3.50078 -0.353695 0.0452428 0.477566
421 0.498388 -0.00109556 0.100139 0.220078 -3.48247 -0.201688 1.06505 0.122495
422 0.548124 0.0515195 0.0966127 0.306921 -3.49735 -0.144435 0.0964742 0.599807
423 0.549711 0.00423211 0.148517 0.683969 -3.49735 -0.775063 -1.94196 0.185574
425 0.594079 1.00192 0.0978011 0.691441 -3.45362 1.4574 0.155686 0.857864
428 0.598529 0.0521811 0.149123 0.153398 -3.47747 0.172406 -1.43328 -0.124213
426 0.644884 0.0493574 0.0977237 0.405392 -3.48667 0.398824 0.392563 0.427538
429 0.698154 0.00242942 0.0970452 0.409218 -3.49112 0.14077 -0.466382 0.592739
432 0.69662 0.0530396 0.146726 0.703195 -3.48487 0.213183 -0.79943 0.774852
430 0.751776 0.0492887 0.0983228 0.590476 -3.47485 -1.05733 0.0796177 0.825008
433 0.797943 0.00214048 0.0997554 0.171776 -3.48613 0.553805 -0.66967 0.29212
436 0.798127 0.053173 0.146974 0.363745 -3.48789 0.491647 -1.10477 0.733604
434 0.84933 0.0528745 0.0991344 0.220957 -3.50627 -0.390857 -0.47599 -0.462721
435 0.84723 1.00314 0.14862 0.319875 -3.47641 0.413875 -0.970812 0.0180243
437 0.903039 1.00166 0.10142 0.63301 -3.49495 -1.12211 -0.47468 -1.11745
440 0.899489 0.0506784 0.14742 0.153133 -3.51117 -0.138045 -0.221334 0.724771
438 0.948401 0.0513839 0.0979221 0.392081 -3.50529 0.985472 -0.0362969 0.993094
439 0.951581 1.00365 0.150369 0.514962 -3.49143 0.324701 -1.17049 -0.570304
441 0.996545 0.101522 0.100858 0.459614 -3.49765 1.42171 -0.549595 -0.885801
442 0.0496713 0.150898 0.0998797 0.17278 -3.50406 -0.271891 -0.115385 -0.635514
443 0.0492522 0.0987726 0.148733 0.196105 -3.50165 -0.453838 0.0818722 0.476676
444 -0.000835684 0.153532 0.15041 0.416922 -3.50334 0.106846 -0.796668 -0.070741
445 0.0974747 0.0978146 0.100796 0.463335 -3.47352 0.79777 0.153767 -0.760689
446 0.148107 0.149881 0.0973242 0.391644 -3.47484 0.983906 -1.36051 0.0699914
447 0.151898 0.100565 0.151862 0.62997 -3.49265 -0.304156 -0.262038 -1.12341
448 0.0991039 0.148872 0.144473 0.75604 -3.46728 -0.349806 -0.480588 1.55455
449 0.199813 0.100055 0.0973088 0.330604 -3.51607 0.197489 0.281938 0.528546
452 0.201175 0.147705 0.15063 0.35803 -3.47904 -0.788297 0.0665278 -0.680545
450 0.251249 0.150981 0.100897 0.374972 -3.50041 -0.670759 -0.487527 -0.468704
451 0.247557 0.098962 0.150313 0.218149 -3.51619 0.321724 0.400974 -0.530526
453 0.29822 0.100943 0.0989986 0.0852405 -3.50526 0.150744 -0.374246 1.05386
456 0.298978 0.150074 0.150493 0.108389 -3.512 -0.0450339 0.34559 -0.221412
454 0.347145 0.151191 0.100091 0.22915 -3.51385 0.753968 -0.581861 -0.0205799
455 0.346732 0.100138 0.150944 0.144628 -3.49561 0.0534415 -0.767981 -0.408538
457 0.397347 0.0979616 0.103358 0.482144 -3.48798 0.0866097 0.328684 -0.632728
460 0.396798 0.149124 0.148089 0.220323 -3.51285 0.681123 0.221788 -0.232291
458 0.448337 0.149403 0.099557 0.130483 -3.50981 -0.482239 0.4819 0.0126867
459 0.445221 0.0986031 0.150419 0.387809 -3.49596 0.853201 -0.0884774 0.244329
461 0.496152 0.0982963 0.100966 0.354064 -3.51129 0.0822317 0.54188 0.089116
464 0.497917 0.150805 0.149757 0.109871 -3.50303 -0.147778 -0.20247 -0.261441
463 0.54835 0.101024 0.146723 0.343856 -3.50989 0.211547 -0.208183 0.788782
462 0.547961 0.152108 0.102116 0.277825 -3.47577 0.288487 -0.926712 -0.931912
465 0.597323 0.100213 0.0973218 0.28413 -3.52761 0.215765 0.298436 -0.051357
468 0.598661 0.151286 0.148247 0.239795 -3.46409 -0.47526 -0.105016 1.22258
466 0.651774 0.148354 0.103214 0.37893 -3.4864 -0.284415 0.144216 -0.600782
467 0.644454 0.103027 0.149192 0.777138 -3.45335 0.540182 -1.5121 -0.243862
469 0.699559 0.0971515 0.101652 0.423648 -3.49787 -0.200402 0.469478 -0.248994
472 0.700249 0.147307 0.152082 0.507265 -3.49813 -0.141643 0.407256 -0.623936
471 0.750373 0.098606 0.149109 0.286576 -3.4678 -0.230699 -0.108447 0.221715
470 0.749437 0.149218 0.0993313 0.176938 -3.48568 -0.290089 0.75766 0.629185
473 0.797516 0.102418 0.0982381 0.246534 -3.50012 0.217627 -0.5981 -0.365975
476 0.799171 0.151533 0.149561 0.122456 -3.51581 0.174463 -0.0555596 0.242005
474 0.846671 0.152391 0.0996014 0.476988 -3.5117 0.501126 -0.62693 -0.0891397
475 0.848171 0.100382 0.146656 0.174189 -3.51492 0.196843 0.276226 0.296596
477 0.897773 0.0997706 0.0983442 0.229492 -3.46578 0.380239 -0.0191388 -0.617214
480 0.901958 0.150363 0.149039 0.317593 -3.5163 -0.721256 -0.517432 -0.0483802
478 0.949754 0.148698 0.0983846 0.193553 -3.46781 0.0660271 0.662757 1.76551
479 0.949654 0.100593 0.151269 0.196698 -3.49238 -0.0659871 0.0396805 -0.975249
483 0.0532725 0.202815 0.145564 0.834864 -3.47391 -1.28515 -0.664744 -0.0550315
485 0.102175 0.199145 0.0973303 0.162907 -3.50706 0.0386147 0.397557 -0.30391
487 0.149931 0.197826 0.147605 0.0983075 -3.52222 -0.030068 0.548462 0.297743
488 0.100402 0.249038 0.147892 0.164053 -3.48955 0.947672 -0.357395 0.30006
489 0.198742 0.19962 0.0985418 0.154125 -3.47418 0.22206 -0.709563 0.396984
491 0.247905 0.199269 0.147005 0.438844 -3.49617 0.739446 0.573935 1.12127
492 0.199517 0.250769 0.149563 0.249001 -3.4882 0.253459 -1.05333 -0.366338
493 0.301146 0.20189 0.100918 0.402202 -3.49906 0.17189 -0.669377 -0.79032
495 0.351575 0.200299 0.148882 0.211544 -3.50183 -0.365702 -0.153233 1.27325
497 0.400123 0.20206 0.0981315 0.308524 -3.4771 -0.0236846 -1.05916 1.14795
499 0.447456 0.201494 0.149745 0.199338 -3.5092 -0.100389 -0.350196 -0.574473
501 0.497426 0.199888 0.101121 0.151056 -3.50897 -0.0675706 0.548349 -0.794464
503 0.5518 0.202241 0.150422 0.445854 -3.4996 -0.485443 -0.185753 0.131776
505 0.601825 0.199192 0.102339 0.396879 -3.5028 -0.0736279 0.520287 -0.371089