ITEM: TIMESTEP
2750
ITEM: NUMBER OF ATOMS
4000
ITEM: BOX BOUNDS pp pp pp
2.3971487289504867e+00 3.3702851271049440e+01
-1.3735578946544784e+00 3.7473557894654455e+01
-1.2650018572267747e+00 3.7365001857226645e+01
ITEM: ATOMS id xs ys zs c_csym c_peratom fx fy fz
3 0.0498886 0.00592272 0.0504141 5.55086 -3.51611 0.246234 0.0652463 0.0195173
8 0.101644 0.0556853 0.0486073 4.86361 -3.51247 -0.458891 -0.146485 0.156189
7 0.145709 0.00327612 0.0487313 0.138396 -3.51234 0.114784 -0.294286 0.339985
6 0.151048 0.0618232 -0.000441618 0.374481 -3.49915 -0.530095 0.302552 0.0117675
12 0.196443 0.0516581 0.0478293 5.40439 -3.49396 0.270029 0.560683 1.09431
16 0.294139 0.0508261 0.0521918 0.291472 -3.4929 -0.250107 0.0593148 -0.379874
10 0.249331 0.0600229 0.00155077 4.87255 -3.51507 -0.267771 -0.18366 -0.53798
20 0.386816 0.0528756 0.051925 5.04839 -3.48376 0.153962 -0.168573 0.282761
14 0.342904 0.0591586 0.00198267 5.28494 -3.49377 0.300625 -0.430038 -0.0585385
17 0.391675 0.00796385 0.00240641 0.382147 -3.47853 -0.805498 -0.278837 -0.150368
19 0.439157 0.00617524 0.0488609 1.05455 -3.4363 0.899025 -0.560682 0.0196868
18 0.440321 0.0546498 0.0055374 5.39879 -3.47377 -0.275457 0.251266 -1.61343
24 0.495818 0.0542883 0.0493614 0.315339 -3.46335 -0.626192 -0.700952 0.847459
23 0.554449 0.0114836 0.0450512 0.381628 -3.50312 -0.416335 -0.531542 0.289626
21 0.496018 0.0120683 0.999104 0.262073 -3.47369 -0.302041 -0.649733 -0.359434
22 0.541093 0.0600198 0.998125 0.781042 -3.46422 0.911999 1.08806 0.606709
28 0.603359 0.0588147 0.0461013 0.152361 -3.50089 -0.0788204 0.397732 0.0270757
25 0.606017 0.0156009 0.996405 0.181864 -3.50945 0.161692 0.236457 0.157461
26 0.653653 0.0687697 0.998559 0.726626 -3.48013 0.261841 -0.87623 -0.305238
27 0.66434 0.0141446 0.0447584 4.46451 -3.48355 -0.650854 0.400961 -0.356125
32 0.711427 0.0649556 0.0432779 4.64414 -3.50414 0.24879 0.0860219 -0.23241
29 0.712849 0.0214398 0.99408 4.69309 -3.51349 -0.272997 0.168117 -0.0167757
31 0.754864 0.0111962 0.0453783 5.1478 -3.4992 0.230406 0.426917 0.586012
30 0.764943 0.0700628 0.995217 4.82338 -3.46917 -0.664218 -0.450327 0.0697368
36 0.806256 0.0607572 0.0462322 5.51582 -3.50541 0.127656 0.488171 0.634623
35 0.850592 0.00964167 0.047535 5.46735 -3.47793 0.698696 -0.323917 0.239226
40 0.907723 0.0595582 0.0495426 5.52606 -3.48609 -0.75564 -0.0344203 -0.301111
37 0.910165 0.0155724 -0.00150702 5.38559 -3.45765 -1.35195 -0.817316 0.128961
4 0.00467889 0.0598187 0.0503882 0.412432 -3.48896 -0.396485 -0.64053 -0.0523471
39 0.950714 0.00837768 0.0500958 0.365009 -3.48928 0.194271 -0.243999 0.222374
43 0.0513333 0.107065 0.0527865 0.380368 -3.48251 -0.0325939 0.510715 -0.088552
44 0.00836638 0.161193 0.0511093 4.74068 -3.49465 -0.445372 -0.119689 -0.259503
47 0.149987 0.104906 0.0493258 5.11661 -3.50466 -0.115324 0.237075 0.116797
48 0.0967057 0.156402 0.0502416 5.02027 -3.4811 0.879866 0.436732 0.351556
46 0.149423 0.164436 0.00128833 5.83657 -3.49355 0.0216544 -0.0166573 -0.243842
49 0.200269 0.110857 -0.00142953 0.443845 -3.495 -0.644898 0.641163 0.172031
52 0.195974 0.156232 0.0494623 0.200706 -3.51105 0.310227 -0.035839 0.02347
51 0.241887 0.105114 0.048391 5.36965 -3.45596 1.18897 -0.214259 0.430881
50 0.24838 0.162455 0.000202537 0.216659 -3.48892 -0.258137 -0.0554508 -0.199476
56 0.295161 0.154407 0.0473958 0.335519 -3.49279 0.179162 -0.0160875 0.473897
53 0.300381 0.109916 -0.00404819 5.06862 -3.47072 -0.196375 0.836508 1.51296
54 0.351632 0.161603 -0.00127249 5.17163 -3.48603 -0.611238 -0.53633 -0.269352
55 0.342695 0.102732 0.0520163 5.49985 -3.4989 0.070333 0.387787 -0.289874
60 0.395297 0.153777 0.0492662 5.49934 -3.5055 0.0992863 -0.495657 -0.0649034
57 0.393959 0.107111 -0.00113298 5.25216 -3.49755 0.258283 0.189001 0.575805
58 0.447555 0.15847 -0.00144014 5.13152 -3.49842 -0.434875 0.0270218 0.12729
59 0.439658 0.098689 0.0515967 4.72347 -3.50082 0.236317 0.227295 0.0854393
64 0.491808 0.151373 0.0505336 0.333812 -3.49111 -0.659693 -0.0528354 0.420935
61 0.48886 0.108329 0.00223802 4.51656 -3.48745 0.129392 -0.804978 -0.378781
63 0.540143 0.103091 0.0527249 1.005 -3.45289 0.804492 0.0455476 -1.94597
62 0.542528 0.152889 0.00351559 4.88093 -3.48928 0.531918 0.317444 0.27681
68 0.594036 0.149891 0.0545026 0.973221 -3.50013 0.270612 0.206262 -0.303301
65 0.59313 0.107584 0.00136668 0.603686 -3.46942 0.0842224 -0.167603 0.024
67 0.656591 0.109809 0.0464631 0.445272 -3.50115 -0.14288 -0.194846 0.109415
66 0.641989 0.156826 0.00307884 1.43086 -3.47151 0.243315 -0.292777 -0.377814
72 0.702872 0.157715 0.0471574 0.188712 -3.51041 0.424926 0.492584 0.328254
69 0.707678 0.115024 0.993825 0.761972 -3.50453 -0.22117 -0.497275 0.41785
71 0.758925 0.113811 0.0445406 0.727252 -3.47204 0.662448 0.0750646 -0.213564
76 0.810626 0.162853 0.0464385 0.450986 -3.48974 0.0671619 0.166605 -0.16026
75 0.855691 0.113656 0.0481173 4.99126 -3.4733 0.536258 -0.878441 -0.155857
80 0.90594 0.162378 0.0472763 5.49437 -3.50402 0.311939 0.034389 -0.502374
79 0.952644 0.11152 0.0474949 5.03989 -3.50088 0.678712 -0.196761 0.417039
83 0.0539505 0.213183 0.0504014 0.28022 -3.49478 0.0519773 -0.421361 0.123668
87 0.149554 0.20848 0.05123 5.57192 -3.48167 0.338687 -0.126472 -0.471545
91 0.248554 0.20614 0.049113 5.93651 -3.49674 0.0715606 0.1875 0.318116
89 0.199733 0.215013 0.000533445 0.120599 -3.50937 0.101135 -0.238391 -0.213298
95 0.347162 0.203768 0.0469504 0.43132 -3.48683 0.163872 0.153716 0.966909
93 0.299934 0.209366 -0.000638107 0.530184 -3.47801 -0.639192 0.998742 0.702523
100 0.398027 0.2543 0.0529125 0.403708 -3.50894 -0.119758 -0.432215 -0.482711
97 0.400082 0.208448 0.000800744 0.188675 -3.49629 -0.00661109 0.493459 0.0171806
99 0.447677 0.20258 0.049717 0.34119 -3.51829 -0.434836 -0.0296025 0.305157
104 0.49737 0.249515 0.0532695 0.305431 -3.4794 0.361838 0.355497 0.599283
101 0.499046 0.20439 0.00448644 4.79355 -3.49738 0.209661 0.160687 -0.590247
98 0.45404 0.253632 0.00537571 5.14181 -3.46296 -1.07198 0.700812 -0.841585
103 0.543751 0.196824 0.0552663 4.93888 -3.49036 0.392725 0.365329 -0.299565
108 0.595898 0.251001 0.053014 0.294386 -3.47005 -0.58748 -0.627291 -0.838258
105 0.594088 0.204579 7.50408e-05 5.50908 -3.47579 -0.299166 0.667566 1.0844
107 0.644078 0.201436 0.0507455 0.549724 -3.45704 -0.114208 0.235433 1.18725
109 0.695538 0.205377 0.00180105 0.833042 -3.48845 -0.175367 0.360857 -0.00794828
111 0.755315 0.210061 0.0496951 0.510479 -3.51753 -0.103553 -0.43496 -0.47407
115 0.861537 0.21442 0.0445245 0.679357 -3.50292 0.344006 -0.0687177 0.43615
119 0.961248 0.21463 0.048042 5.35241 -3.5015 -0.451828 -0.167416 0.384524
84 0.00932489 0.264882 0.0481737 4.57273 -3.48874 -0.26044 0.0184101 -0.114931
123 0.0582811 0.314073 0.0480678 5.7491 -3.48023 -0.479306 0.0338666 0.0613839
88 0.102719 0.258694 0.0518047 5.18709 -3.48914 0.299684 1.22482 -0.233016
127 0.151127 0.314042 0.0479744 5.18063 -3.47842 0.212336 -0.970247 0.312283
92 0.203563 0.261057 0.0484821 5.34415 -3.47889 -0.317687 -0.560306 0.218906
131 0.253191 0.308424 0.0488152 0.142255 -3.51186 0.0269178 -0.0611642 -0.0857407
96 0.301617 0.257155 0.0491801 0.281319 -3.50582 -0.55478 -0.812793 0.143893
135 0.351364 0.30474 0.0514975 0.250134 -3.48743 -0.281693 -0.141181 -0.395491
94 0.349728 0.258593 1.00123 4.8395 -3.49907 0.701 0.650755 0.312456
133 0.307694 0.311561 1.00133 5.01047 -3.48372 -0.751606 0.159717 -0.336783
137 0.398965 0.307499 0.00224781 5.11966 -3.46436 0.501718 0.171021 -0.157078
139 0.44697 0.301522 0.0505741 5.01977 -3.49861 0.275734 0.415806 0.603096
141 0.496435 0.307837 0.00155398 0.388452 -3.48438 0.174606 -0.432171 -0.492958
143 0.541449 0.302308 0.0501833 5.11186 -3.47986 0.854767 -0.603378 0.70862
102 0.546551 0.255306 0.00208321 5.19242 -3.51176 -0.164403 0.432822 0.0489263
145 0.599395 0.307895 0.00507629 4.85646 -3.47255 -0.726075 0.0477288 -0.708462
106 0.643953 0.257452 0.000851793 0.278415 -3.48357 -0.238097 -0.538216 1.16912
147 0.64486 0.301196 0.0535102 0.22914 -3.48702 0.0706308 -1.41714 -0.220272
112 0.692871 0.249535 0.0524833 0.846037 -3.48306 0.179215 0.348011 -0.381313
116 0.808784 0.259859 0.0462826 1.34028 -3.47057 -1.36094 -0.383755 1.4712
151 0.743214 0.298897 0.0561877 1.17074 -3.49828 0.160463 -0.00733747 -0.478462
120 0.911032 0.263692 0.0473835 0.414456 -3.49205 -0.272205 -0.0954624 0.324348
155 0.854845 0.310476 0.0510319 0.529978 -3.48848 -0.225586 -0.618606 -0.305976
159 0.956015 0.313801 0.0494782 0.483563 -3.43528 1.22811 0.144734 -1.40968
163 0.0640302 0.418774 0.0478483 4.17935 -3.42963 -0.892601 -0.377319 -0.911793
124 0.00930252 0.366299 0.0470334 4.43513 -3.46508 0.224485 -0.212396 -0.46736
128 0.105777 0.363999 0.0462718 0.225889 -3.4645 -0.0254015 0.282588 0.289949
167 0.155613 0.410375 0.0453903 5.18575 -3.46564 0.0872671 1.47197 0.415794
165 0.109732 0.424376 0.993183 4.65144 -3.49658 0.166779 -0.446651 0.321422
132 0.204463 0.359014 0.050504 5.25311 -3.50126 0.0474852 0.300251 -0.912564
171 0.250759 0.41028 0.0484828 5.40062 -3.48788 0.135387 0.490572 -0.0738333
136 0.30009 0.359363 0.0497558 0.140376 -3.49675 0.0406867 -0.386068 -0.211804
175 0.349329 0.406804 0.0489044 5.51934 -3.50761 0.0949624 0.699501 0.061915
140 0.398849 0.355463 0.0503325 0.0967132 -3.51556 0.0650573 -0.0474511 -0.375606
134 0.349418 0.361717 0.999719 4.97826 -3.49228 0.757161 0.243164 0.14897
179 0.449622 0.405516 0.0478468 0.162299 -3.47657 0.163553 -0.284116 0.133598
138 0.449986 0.359345 -0.000732982 0.129825 -3.51019 -0.0380056 0.0823871 0.136528
144 0.500443 0.352273 0.0455889 5.03706 -3.44889 -0.576514 0.724355 1.16909
177 0.403342 0.411486 0.000618931 5.31489 -3.47057 -0.485494 0.46045 -0.0253086
181 0.499508 0.411029 -0.00141941 0.228254 -3.49364 0.216124 -0.155498 0.0337821
183 0.550844 0.405084 0.0482649 4.94511 -3.49523 -0.487082 -0.522851 0.328473
148 0.596609 0.348435 0.053271 5.44462 -3.4726 -0.274332 0.496145 0.157824
142 0.551139 0.356201 0.000784413 4.69476 -3.48961 -0.124534 0.760148 -0.140418
185 0.597657 0.409672 0.000763671 5.60369 -3.5012 0.418993 -0.224771 -0.12157
146 0.648248 0.358083 0.00272408 5.13487 -3.51325 0.0473748 -0.23702 -0.23454
187 0.643744 0.398328 0.0535214 0.387952 -3.49097 0.165006 -0.00847796 -0.409634
152 0.692019 0.34586 0.0533212 4.66938 -3.47788 0.177827 0.736329 0.760484
189 0.696012 0.409595 0.00047985 4.89161 -3.47631 -0.670461 -0.43817 0.135921
191 0.738295 0.397691 0.0517479 5.34126 -3.47255 0.0864133 0.966568 0.615192
156 0.788301 0.353257 0.0533525 1.08858 -3.45682 0.0349891 -0.781616 0.16792
160 0.900849 0.359285 0.0513713 0.274023 -3.44712 0.763479 -0.131825 0.145096
195 0.840734 0.400156 0.0551289 1.13955 -3.46092 -0.282147 0.770877 0.344113
199 0.95078 0.408693 0.0501426 0.175911 -3.51544 0.00959703 -0.0159528 0.17659
164 0.00206444 0.461471 0.0494807 0.339435 -3.51391 -0.0873739 -0.333305 -0.0166237
168 0.110771 0.469592 0.0443013 4.17352 -3.46987 -0.415123 -0.634843 0.129619
172 0.202073 0.465321 0.044768 5.20383 -3.45623 0.524653 -0.547448 0.629227
176 0.302566 0.4611 0.0446573 0.408812 -3.49034 0.279117 -0.174321 0.96086
180 0.398725 0.458331 0.0483873 0.391047 -3.49987 -0.0203631 -0.255499 0.285916
184 0.501427 0.455662 0.0487786 0.16676 -3.49951 -0.0606693 -0.201372 0.13356
178 0.449774 0.461843 0.00371339 4.74988 -3.49187 0.306813 0.260119 -0.838316
188 0.599703 0.45329 0.0505215 4.83807 -3.4995 -0.136388 0.0442601 0.284774
223 0.552304 0.507436 0.0519057 4.83634 -3.48355 -0.619291 -0.311609 -0.294888
225 0.597997 0.511184 0.00048167 5.36368 -3.51024 0.28383 0.41068 0.17262
182 0.551682 0.462196 0.00301597 5.09335 -3.51511 -0.113342 -0.214808 -0.479448
227 0.643629 0.504372 0.053473 5.30344 -3.49411 0.0456406 -0.164126 -0.642266
192 0.686515 0.448704 0.052908 5.18164 -3.47685 0.837698 0.623619 -0.00861091
186 0.647128 0.460811 0.000906164 0.279629 -3.513 -0.218831 -0.312483 -0.0320831
229 0.695509 0.506985 0.000597781 0.404471 -3.50112 -0.102494 0.34016 0.0121141
196 0.790774 0.453344 0.0560999 0.591917 -3.46013 -0.221321 -1.2354 -0.853865
231 0.741015 0.503195 0.0535177 5.2876 -3.45504 -0.0576678 -0.910582 -0.835216
200 0.889361 0.450691 0.0552587 0.941501 -3.47892 -0.3237 -0.313375 0.315719
203 0.0491497 0.512153 0.0486903 0.287398 -3.47752 0.656844 -0.333347 0.18731
207 0.156522 0.517956 0.0419111 5.20281 -3.5021 0.508656 0.0959634 0.254698
208 0.101732 0.562166 0.0463084 0.339267 -3.49719 -0.098899 -0.37579 0.314661
211 0.255854 0.512919 0.0455989 0.176272 -3.50435 0.237244 0.387533 0.171391
212 0.215107 0.565043 0.044368 4.91101 -3.48407 -0.723585 0.614038 -0.146755
209 0.208625 0.521525 0.993917 0.833714 -3.51243 -0.0393782 -0.0190648 -0.0981244
215 0.3568 0.510236 0.0478593 0.329037 -3.50784 -0.449997 0.0857989 0.0435522
216 0.308913 0.565849 0.0468215 4.84759 -3.48378 -0.190972 -0.601281 0.306359
220 0.404744 0.560281 0.0491504 0.0744522 -3.51675 0.11581 0.0815568 0.116366
219 0.453081 0.505767 0.0509475 0.251367 -3.49256 -0.152023 0.259965 -0.439894
224 0.501406 0.558231 0.0510373 5.29097 -3.50906 0.20145 -0.398386 -0.409152
221 0.50361 0.512728 0.00140388 5.22888 -3.50349 -0.0115799 0.263695 0.153882
218 0.456262 0.566369 0.00205403 5.0943 -3.50136 -0.174918 -0.283128 -0.682566
228 0.596593 0.557734 0.0498424 5.19965 -3.50715 0.559166 -0.37931 -0.303244
222 0.553225 0.565807 -0.0022223 5.45957 -3.49043 -0.232995 -0.688797 0.0763741
226 0.652304 0.561933 0.00118273 4.75839 -3.49564 -0.943991 -0.285487 -0.189312
232 0.695768 0.550352 0.0509152 5.17618 -3.49642 -0.328153 1.02066 0.0932734
236 0.790944 0.551135 0.0520765 0.186012 -3.50374 0.341348 0.0289022 0.250582
235 0.841025 0.499864 0.0533994 0.224416 -3.51599 -0.199322 -0.0399721 0.0859218
240 0.892853 0.547793 0.0570308 4.69062 -3.49637 -0.377413 -0.0247909 -0.981658
239 0.938107 0.498301 0.0560226 1.61185 -3.48235 0.324207 0.168789 -0.199402
204 0.987312 0.550924 0.052876 0.896223 -3.47344 -0.0306262 0.312714 0.144982
243 0.042474 0.601035 0.052606 0.278829 -3.49719 -0.448008 0.426467 -0.141353
248 0.0947451 0.652188 0.052585 0.200722 -3.51571 -0.384695 -0.313804 0.175471
247 0.155136 0.609773 0.0458967 0.242342 -3.52672 -0.0309472 -0.160147 0.225869
252 0.200991 0.662558 0.0475786 0.522322 -3.49694 0.561194 -1.16569 -0.498231
251 0.26495 0.61475 0.0463601 5.05651 -3.45427 -0.993408 0.718497 -0.769856
256 0.311707 0.666396 0.0429772 4.62166 -3.50855 -0.22973 0.196496 -0.370602
255 0.358438 0.615985 0.0486128 0.447585 -3.49304 -0.0639433 -0.48807 -0.326713
260 0.406779 0.664987 0.0451297 0.139977 -3.51114 0.0885172 -0.251859 -0.101568
259 0.45653 0.611269 0.0474455 5.54735 -3.48338 -0.66046 0.1955 0.648307
264 0.502289 0.663627 0.0449941 5.28844 -3.46952 0.154106 -0.416928 0.809186
263 0.548786 0.606767 0.0468721 4.91217 -3.48848 0.425946 1.17855 0.532952
265 0.602533 0.614588 -0.00268873 0.215999 -3.49737 0.180886 -0.0068028 0.462428
261 0.502109 0.616411 0.999769 5.72276 -3.49502 0.264295 0.223583 -1.00991
262 0.553284 0.667134 1.00151 0.670021 -3.48207 0.370204 0.131493 -1.06076
268 0.603294 0.656888 0.0478501 0.204765 -3.4949 -0.592142 0.228207 0.152711
267 0.647439 0.606449 0.049981 0.284528 -3.47567 0.587219 -0.560693 -0.493812
269 0.698531 0.609019 -0.00202914 5.27121 -3.48345 0.248618 0.789657 0.871886
272 0.700137 0.652454 0.0507067 5.47124 -3.51375 0.00259473 0.160984 0.0162935
271 0.745373 0.601001 0.0517979 0.185544 -3.49107 0.148145 0.0940756 -0.487833
276 0.799577 0.653473 0.0528358 5.03671 -3.50223 -0.649739 -0.736793 0.284762
275 0.846442 0.599847 0.0538703 4.93455 -3.50407 -0.535453 0.0761027 0.128279
280 0.889845 0.65139 0.0504537 4.89511 -3.4888 0.503194 -0.162999 0.869286
244 0.98375 0.645708 0.0567998 4.92015 -3.46023 1.03543 0.519895 -0.82265
279 0.936057 0.60117 0.0519341 5.30243 -3.46832 -0.45178 -0.562445 0.935077
283 0.0320029 0.695869 0.0570705 5.15898 -3.45163 0.872071 -0.312511 -0.114183
287 0.140585 0.70163 0.0505014 0.562078 -3.4707 -0.260909 0.397104 0.773876
286 0.13361 0.755169 0.00338283 4.72499 -3.48476 0.58475 -1.0384 -0.13691
291 0.249837 0.711377 0.0435751 0.497178 -3.50416 0.611684 -0.283714 0.803351
292 0.187828 0.752961 0.0519856 0.711447 -3.4953 0.442765 0.573239 -0.297884
289 0.189233 0.709666 0.00318282 0.867107 -3.45565 0.118962 -0.34867 -1.04038
295 0.360521 0.716925 0.0407563 4.505 -3.50484 0.213901 -0.175098 0.176623
299 0.454292 0.713581 0.0448684 4.93498 -3.50796 0.497086 0.475867 -0.0588425
303 0.554236 0.713368 0.0495982 0.429581 -3.47702 0.0299008 -0.380992 -0.502955
305 0.608841 0.715278 0.998703 5.37925 -3.49667 -0.450446 0.158369 -0.0784165
307 0.654209 0.704367 0.0505809 5.10492 -3.50088 0.0548158 0.456782 -0.409663
311 0.749889 0.703434 0.0516741 5.22223 -3.48794 -0.0115928 0.096547 0.183224
315 0.843649 0.703004 0.0547463 5.20761 -3.50111 0.0154159 0.0217367 -0.851625
320 0.894205 0.75064 0.0552408 5.77962 -3.49788 0.540431 0.469254 -0.224948
284 0.998232 0.750788 0.0544188 5.66284 -3.46762 -1.16998 -0.170713 0.0231295
319 0.941756 0.699262 0.0514969 4.82944 -3.49547 0.0478737 0.215053 0.516373
288 0.0864723 0.75117 0.0542899 5.13276 -3.44942 0.238839 -1.01429 -0.000638706
323 0.0435443 0.799955 0.054526 0.105623 -3.48103 -0.0732943 -0.22516 -0.610531
325 0.0901447 0.804962 0.00202446 5.59924 -3.4955 -0.0759554 0.579554 -0.46203
327 0.134288 0.798796 0.0545428 4.91676 -3.48785 0.223659 0.228057 0.32785
331 0.243981 0.802196 0.0504313 0.186945 -3.52163 -0.231508 -0.172947 -0.142752
329 0.183498 0.80515 0.00375383 0.856052 -3.48983 0.42841 -0.945564 0.0456621
294 0.355924 0.768891 0.996305 0.355549 -3.51395 -0.54727 -0.143055 0.199163
296 0.303676 0.759238 0.0458842 0.295993 -3.513 -0.0760326 0.440913 -0.316627
333 0.292621 0.808213 0.998394 0.295509 -3.50458 -0.12677 0.0203646 0.149197
335 0.353183 0.812152 0.0464003 0.350979 -3.49098 0.459106 -0.620396 -0.731446
300 0.415638 0.767375 0.0404458 5.0131 -3.46775 -0.725 -0.0895265 0.0966658
339 0.460357 0.817289 0.0420536 0.552092 -3.49023 0.219765 -0.0275965 -0.107928
337 0.40611 0.817534 0.995162 0.284949 -3.47153 -0.0989766 0.642897 0.542998
308 0.606521 0.760657 0.0478041 5.52012 -3.52393 0.115957 -0.141679 -0.149342
304 0.504963 0.767255 0.0436624 4.71649 -3.46762 0.542924 -0.944923 -0.224365
343 0.561249 0.813103 0.0444729 0.275955 -3.49444 0.0171852 0.178742 -0.204077
341 0.512893 0.821579 0.990874 0.887748 -3.48102 -0.361513 -0.0247026 0.609826
345 0.613745 0.823912 0.993651 5.12063 -3.47998 -0.277156 -1.0186 0.735189
312 0.702711 0.757531 0.0474202 0.279638 -3.49587 -0.0327567 -0.567972 0.476963
347 0.658016 0.808247 0.046709 0.32631 -3.50682 -0.461093 0.259217 -0.310961
351 0.748107 0.806322 0.0483321 5.1217 -3.49872 0.546008 0.441806 0.227704
316 0.794862 0.755783 0.0524467 5.2842 -3.47352 0.995707 -1.10027 -0.578145
355 0.847311 0.802529 0.0541302 5.40615 -3.50769 0.341455 0.321018 -0.598432
359 0.949458 0.803536 0.0528213 5.26098 -3.47654 -0.655154 -0.421243 0.233646
363 0.0453747 0.902439 0.0551529 5.25526 -3.51715 0.0686787 -0.153646 -0.311901
328 0.091882 0.850272 0.0543833 0.156032 -3.5048 0.0678277 -0.083552 -0.297331
367 0.14565 0.899108 0.0510008 5.08645 -3.51141 -0.528528 0.224622 0.629072
332 0.186641 0.845374 0.0544812 4.64914 -3.5049 0.234042 0.398397 0.190705
371 0.237522 0.89933 0.0537425 4.88249 -3.46942 0.874403 -0.346278 0.0317398
330 0.237733 0.852692 0.00559257 4.71577 -3.5018 0.199141 0.227392 -0.20502
369 0.195424 0.904332 1.00256 5.37708 -3.49908 -0.484701 0.427606 -0.245825
336 0.295383 0.851681 0.0523772 0.602834 -3.44029 -0.390884 0.913647 -0.430514
375 0.348481 0.903201 0.0466386 0.404382 -3.49821 -1.02716 0.45125 0.492974
373 0.291346 0.905107 -0.000141335 0.659397 -3.46635 -0.376782 -0.028678 0.465624
334 0.346472 0.857922 -0.000940759 0.457686 -3.44224 -0.773058 0.36121 0.228173
340 0.406756 0.862574 0.0456253 0.551119 -3.50131 -0.161149 -0.318406 -0.622107
377 0.393603 0.910709 0.996821 0.479221 -3.48846 0.48484 -0.769859 0.190879
379 0.455571 0.910495 0.0468251 0.207715 -3.48396 -0.551859 -0.570163 0.349431
344 0.511902 0.864388 0.0438443 0.334173 -3.50872 0.176263 0.367455 -0.729065
383 0.561188 0.91394 0.0418818 0.953137 -3.49608 0.00999433 0.282244 0.846921
381 0.506151 0.917539 0.997028 0.242963 -3.47032 0.0577245 -0.634432 0.325075
342 0.563805 0.868844 0.992407 0.70878 -3.47361 -0.176908 1.03985 0.156832
348 0.609303 0.863088 0.0480257 5.38128 -3.50435 -0.0965513 -0.192094 -0.573801
385 0.610963 0.917617 0.9947 0.77811 -3.48346 0.262364 0.866604 -0.124987
387 0.656269 0.913136 0.047208 0.224946 -3.50744 0.173163 0.0352417 -0.0963559
352 0.700909 0.858768 0.0490961 5.28359 -3.50068 0.5665 0.311196 0.0322034
346 0.662015 0.871696 0.997203 4.39384 -3.4711 -0.475669 -1.22412 -0.655508
389 0.709001 0.917913 0.996995 5.82642 -3.50344 0.152835 0.528357 0.145575
391 0.750645 0.907048 0.0492915 5.21493 -3.49282 0.428393 0.273906 0.0621067
356 0.802787 0.855055 0.0503753 5.22342 -3.49621 -0.633843 0.224451 0.196921
350 0.754079 0.863843 0.997751 4.71107 -3.48393 0.364883 0.641308 0.24225
393 0.804213 0.914833 -5.82972e-05 4.89415 -3.49169 -0.0833642 0.23358 -0.101064
360 0.897918 0.854706 0.0513169 5.35741 -3.50419 0.107121 -0.306918 -0.00450135
395 0.848532 0.904209 0.0531989 5.25551 -3.4637 0.390633 0.6347 -1.02535
324 0.998468 0.851322 0.0543651 5.45519 -3.50906 -0.183103 0.252625 -0.178336
399 0.949867 0.903418 0.0518222 5.56578 -3.50595 0.106728 0.207641 0.247122
368 0.0952214 0.950846 0.0498667 0.299989 -3.48107 0.46401 0.381588 0.359834
366 0.146363 0.958173 -0.00143315 0.358596 -3.51519 0.0939032 0.0434992 0.297047
372 0.190835 0.949898 0.0504949 5.65683 -3.51304 0.336198 0.328787 0.189893
11 0.243246 -0.00153912 0.051566 5.24299 -3.49654 0.210019 0.664708 0.39528
376 0.29082 0.948622 0.0542982 0.961353 -3.50392 -0.165327 -0.703769 -0.2638
9 0.194988 0.0103511 0.00195425 5.29467 -3.48176 0.300189 -0.230533 -0.842839
13 0.293578 0.00541195 -6.21824e-05 0.52862 -3.50303 -0.202678 1.03349 0.441584
370 0.240615 0.959982 0.0013431 5.09035 -3.48571 0.41616 -0.800941 0.0778365
15 0.340281 0.00201424 0.0525368 0.528097 -3.49242 0.237757 -0.463326 0.226159
374 0.339153 0.958402 0.00268953 0.755122 -3.49219 0.576491 -1.13461 0.0161084
380 0.397828 0.954669 0.0483569 0.284799 -3.48679 -0.413806 -0.636795 0.762866
378 0.444925 0.959136 1.00009 0.421201 -3.49081 0.131848 1.20785 -0.401664
384 0.500713 0.959759 0.046741 0.179787 -3.47966 0.250956 0.227531 0.472094
382 0.553236 0.965961 0.99791 0.137983 -3.51118 -0.0602474 0.184992 -0.00778776
388 0.610284 0.96555 0.0417571 3.94657 -3.48855 0.204627 -0.117589 0.412045
392 0.70391 0.962401 0.0501377 5.05823 -3.47785 0.696044 -0.491071 -1.17998
396 0.800585 0.960288 0.0469258 5.23038 -3.49433 0.525724 -0.667604 0.362517
390 0.756426 0.969286 0.998675 5.20062 -3.48668 -0.139113 -0.369371 -0.583882
400 0.900782 0.957738 0.0493184 0.260607 -3.49764 0.0755866 -0.377026 0.102305
394 0.854393 0.963425 0.997976 5.28683 -3.49594 0.57964 0.322092 0.725575
364 0.00199382 0.954769 0.0526635 5.26454 -3.50174 -0.416346 -0.149045 -0.46168
402 0.0494555 0.0503856 0.102591 0.462292 -3.45846 0.165083 -0.708588 -0.831133
408 0.0977469 0.0400713 0.151201 5.39509 -3.50386 0.399881 -0.216283 -0.970728
405 0.100794 0.994974 0.0993192 5.41797 -3.48837 -0.703033 1.0047 0.382567
406 0.148051 0.0470873 0.0996237 0.068614 -3.50713 -0.259381 0.145309 0.11323
412 0.192573 0.0401793 0.150384 5.52679 -3.49826 0.781313 -0.342651 -0.175729
410 0.244645 0.0457855 0.101045 5.64027 -3.50343 -0.0427585 -0.406971 -0.148979
416 0.29118 0.0384576 0.1517 0.435253 -3.50052 0.182231 -0.0512484 0.175918
414 0.343837 0.0457926 0.104175 0.55807 -3.49519 -0.722955 -0.407367 -0.260656
420 0.391967 0.0416149 0.151685 0.55032 -3.47859 0.540048 0.25633 0.579024
418 0.441352 0.0486006 0.100277 0.241955 -3.50262 0.175838 -0.177125 -0.297128
424 0.499185 0.0442801 0.148022 0.169484 -3.47921 0.39709 0.757866 -0.500231
421 0.499274 0.00230929 0.0962968 0.240604 -3.51513 0.04108 0.487232 -0.489141
422 0.551882 0.0514152 0.0957591 0.212181 -3.48272 -0.812679 -0.28041 0.853698
425 0.609381 0.0101102 0.0944274 0.832402 -3.48514 0.593836 -0.625739 -0.310178
428 0.606156 0.0501356 0.142917 1.05643 -3.47072 0.668166 0.946572 0.872934
426 0.664203 0.059658 0.092609 4.87021 -3.48236 -0.500544 -0.304758 0.268588
427 0.657361 1.00144 0.148846 5.24991 -3.51328 -0.386072 -0.555869 -0.64961
429 0.706083 0.00627458 0.0987469 5.28375 -3.5078 0.180113 0.395874 -0.0433017
432 0.706438 0.0485567 0.148674 5.11016 -3.49565 0.467343 0.192027 -0.175435
430 0.756993 0.0560139 0.0971645 0.152124 -3.50814 0.0328619 -0.232195 -0.227903
431 0.754133 0.997862 0.148487 5.65701 -3.51223 0.193999 -0.0481966 0.16516
436 0.803956 0.0502443 0.145804 5.57182 -3.48864 -0.150091 -0.970068 0.345318
434 0.851845 0.0512156 0.0983515 5.38296 -3.49512 0.431543 0.227897 -0.262514
404 0.996347 0.041101 0.15129 5.19295 -3.49457 0.447553 -0.112234 -0.859954
401 1.00028 0.998142 0.0983669 0.331456 -3.51232 0.000635207 0.279119 0.503553
440 0.904832 0.0440587 0.149752 5.29025 -3.49153 -0.428766 -0.1411 -0.452155
438 0.952834 0.0496711 0.100412 5.55712 -3.51137 -0.00812442 0.00599741 -0.0879803
442 0.0511051 0.153333 0.103315 0.676883 -3.49384 0.309171 -0.528876 -0.522487
443 0.0493767 0.0879712 0.150525 5.41551 -3.42924 -0.0649201 1.64106 0.375112
444 0.00269822 0.146307 0.150729 0.188493 -3.49157 -0.0777335 -0.266119 -0.292036
445 0.100237 0.101389 0.0985034 5.21746 -3.49028 -0.0235333 -0.330561 0.845274
446 0.148236 0.150647 0.100377 5.66413 -3.50433 0.671617 0.128125 0.101827
447 0.146698 0.0902254 0.151996 5.01634 -3.50789 -0.108274 0.258748 -0.691025
448 0.103755 0.145003 0.150714 5.39043 -3.47153 -1.10012 -1.19072 -0.161042
449 0.198164 0.0970362 0.100412 5.15227 -3.50856 -0.417816 -0.0705939 -0.30414
452 0.19465 0.142439 0.150336 5.16307 -3.51082 0.33881 0.0222958 0.0513722
450 0.246676 0.146437 0.101927 5.35662 -3.49316 -0.104838 0.542949 -0.539931
451 0.244484 0.0899263 0.150141 5.68126 -3.52007 -0.0494367 0.0621547 0.258257
453 0.292539 0.0965991 0.0993118 5.11002 -3.50974 0.273389 -0.0564234 0.245991
456 0.294248 0.140319 0.150947 5.40814 -3.50548 -0.144904 -0.434463 -0.214107
454 0.343032 0.148526 0.0990543 5.2505 -3.49922 0.343175 -0.454901 0.170239
455 0.342423 0.0902927 0.152032 0.209658 -3.44815 -0.092416 -0.92407 -0.0465633
457 0.391708 0.0947807 0.102332 0.318748 -3.49485 -0.300052 0.491407 -0.0393126
460 0.388547 0.13645 0.150621 4.31626 -3.47642 0.989392 0.613534 0.155687
458 0.442269 0.144811 0.0984978 0.532098 -3.50621 -0.0433688 0.0271927 0.680613
459 0.444079 0.0879989 0.153338 0.760065 -3.48569 -0.212857 0.213991 -0.488655
461 0.491652 0.0968603 0.0991513 0.412509 -3.4805 0.405506 -0.362149 1.12902
464 0.491448 0.1398 0.151236 0.332326 -3.49276 0.20787 -0.345293 -0.239829
463 0.549056 0.0968646 0.149878 0.220264 -3.50582 0.00225082 -0.395561 -0.444358
462 0.540656 0.146248 0.101926 0.60603 -3.49664 0.291449 -0.102305 0.0651403
465 0.600858 0.101726 0.0961494 0.266588 -3.50339 0.0401812 -0.290485 0.46795
468 0.600628 0.145154 0.150398 0.27106 -3.51996 0.0382435 -0.232111 -0.328896
466 0.654145 0.147096 0.0999577 0.866798 -3.49751 0.234191 0.372145 0.0631372
467 0.663782 0.0992019 0.14274 4.64335 -3.43345 -0.787649 0.128869 0.523138
469 0.716074 0.108222 0.0925044 4.90659 -3.46327 -0.398102 0.144557 0.816872
472 0.711599 0.152369 0.14605 4.36919 -3.48083 0.138163 -0.308327 -0.0166696
471 0.75822 0.0997008 0.148027 0.254551 -3.50327 -0.21407 -0.0233045 -0.244475
470 0.763774 0.158526 0.0943914 4.67208 -3.4855 -0.444587 0.0723079 0.439677
473 0.807135 0.107009 0.0986202 5.0958 -3.5115 0.0182503 -0.367825 -0.699423
476 0.811831 0.149049 0.14736 5.26197 -3.5066 -0.473368 0.279938 -0.0588229
474 0.861117 0.155681 0.0966763 5.48992 -3.50021 -0.439291 0.225377 0.172249
475 0.853023 0.0955051 0.147186 5.37143 -3.49844 0.785829 0.235881 0.0890328
477 0.905279 0.100975 0.096829 5.60694 -3.48161 0.0354145 0.533483 0.890196
441 -0.000240127 0.100447 0.0990363 5.22238 -3.49709 0.179127 0.484612 0.565218
480 0.904607 0.147267 0.148234 5.70085 -3.47458 0.507843 -0.171871 -0.531924
478 0.957066 0.155603 0.096428 4.80532 -3.48947 -0.445045 -0.211233 0.70472
479 0.955648 0.0937493 0.151463 5.06195 -3.48174 -0.591983 0.265209 -0.718016
483 0.05404 0.196734 0.149396 5.11642 -3.49481 -0.21198 0.0840089 0.30339
481 0.00775521 0.205848 0.100197 0.0722601 -3.51925 -0.289224 0.0514469 -0.200337
485 0.105665 0.200567 0.100458 5.4549 -3.49859 -1.16885 0.435394 -0.0559279
487 0.146536 0.194451 0.151932 5.21515 -3.49132 0.934855 -0.378505 -0.535395
489 0.197395 0.200181 0.101326 5.00797 -3.50906 0.231406 -0.0946101 -0.218289
492 0.199922 0.241271 0.151965 5.41236 -3.49173 -0.318124 0.894094 0.196408
491 0.247252 0.19249 0.149603 0.199971 -3.51499 0.0551624 -0.519673 0.091208
493 0.298807 0.198662 0.100381 0.199191 -3.4921 -0.257336 -0.298431 -0.326627
490 0.25154 0.248238 0.100465 5.61592 -3.51093 -0.40314 0.404536 -0.213029
496 0.295476 0.241046 0.151684 5.56788 -3.5023 0.417533 -0.0356084 -0.123938
495 0.345481 0.18636 0.153883 5.21961 -3.45081 -0.37305 0.81535 -1.41443
497 0.39867 0.196609 0.100296 5.48945 -3.48443 -0.753278 -0.0872788 0.198978
494 0.348191 0.24719 0.100697 5.82728 -3.50142 -0.0911137 -0.0705398 0.166908
500 0.393754 0.238592 0.154646 5.05311 -3.47719 0.0252743 -0.0336316 -0.73764
499 0.440626 0.186016 0.153428 5.103 -3.49463 0.180268 0.247028 -0.0911399
501 0.491652 0.193176 0.103259 5.00048 -3.50012 -0.350691 0.576771 -0.00316949
498 0.443505 0.24579 0.10264 5.42521 -3.49015 0.334457 0.18841 0.141375
504 0.493767 0.237669 0.154557 0.286543 -3.48982 -0.664277 -0.0461356 -0.309897
503 0.542487 0.188922 0.150894 0.543435 -3.4947 -0.0151903 0.470163 -0.186533
505 0.599891 0.192685 0.104397 1.04765 -3.49016 -0.183616 0.222534 -0.205668
502 0.544926 0.242166 0.103856 5.01662 -3.50902 0.104945 -0.227612 0.173073
507 0.655611 0.192426 0.151551 0.624083 -3.46887 -0.633682 -0.0624919 -0.49298
506 0.644151 0.248182 0.103848 0.801524 -3.47234 -0.376353 -1.4318 -0.714454
508 0.596493 0.235977 0.152964 0.710008 -3.51111 -0.157624 0.339785 0.127021